 Entering Gaussian System, Link 0=g09
 Initial command:
 /gpfs/runtime/opt/gaussian/g09-D01/g09/l1.exe "/gpfs/data/yqi27/cgu13/CHEM1560Q/Gaussian/872-36-6/inp5/Gau-242050.inp" -scrdir="/gpfs/data/yqi27/cgu13/CHEM1560Q/Gaussian/872-36-6/inp5/"
 Entering Link 1 = /gpfs/runtime/opt/gaussian/g09-D01/g09/l1.exe PID=    242051.
  
 Copyright (c) 1988,1990,1992,1993,1995,1998,2003,2009,2013,
            Gaussian, Inc.  All Rights Reserved.
  
 This is part of the Gaussian(R) 09 program.  It is based on
 the Gaussian(R) 03 system (copyright 2003, Gaussian, Inc.),
 the Gaussian(R) 98 system (copyright 1998, Gaussian, Inc.),
 the Gaussian(R) 94 system (copyright 1995, Gaussian, Inc.),
 the Gaussian 92(TM) system (copyright 1992, Gaussian, Inc.),
 the Gaussian 90(TM) system (copyright 1990, Gaussian, Inc.),
 the Gaussian 88(TM) system (copyright 1988, Gaussian, Inc.),
 the Gaussian 86(TM) system (copyright 1986, Carnegie Mellon
 University), and the Gaussian 82(TM) system (copyright 1983,
 Carnegie Mellon University). Gaussian is a federally registered
 trademark of Gaussian, Inc.
  
 This software contains proprietary and confidential information,
 including trade secrets, belonging to Gaussian, Inc.
  
 This software is provided under written license and may be
 used, copied, transmitted, or stored only in accord with that
 written license.
  
 The following legend is applicable only to US Government
 contracts under FAR:
  
                    RESTRICTED RIGHTS LEGEND
  
 Use, reproduction and disclosure by the US Government is
 subject to restrictions as set forth in subparagraphs (a)
 and (c) of the Commercial Computer Software - Restricted
 Rights clause in FAR 52.227-19.
  
 Gaussian, Inc.
 340 Quinnipiac St., Bldg. 40, Wallingford CT 06492
  
  
 ---------------------------------------------------------------
 Warning -- This program may not be used in any manner that
 competes with the business of Gaussian, Inc. or will provide
 assistance to any competitor of Gaussian, Inc.  The licensee
 of this program is prohibited from giving any competitor of
 Gaussian, Inc. access to this program.  By using this program,
 the user acknowledges that Gaussian, Inc. is engaged in the
 business of creating and licensing software in the field of
 computational chemistry and represents and warrants to the
 licensee that it is not a competitor of Gaussian, Inc. and that
 it will not use this program in any manner prohibited above.
 ---------------------------------------------------------------
  

 Cite this work as:
 Gaussian 09, Revision D.01,
 M. J. Frisch, G. W. Trucks, H. B. Schlegel, G. E. Scuseria, 
 M. A. Robb, J. R. Cheeseman, G. Scalmani, V. Barone, B. Mennucci, 
 G. A. Petersson, H. Nakatsuji, M. Caricato, X. Li, H. P. Hratchian, 
 A. F. Izmaylov, J. Bloino, G. Zheng, J. L. Sonnenberg, M. Hada, 
 M. Ehara, K. Toyota, R. Fukuda, J. Hasegawa, M. Ishida, T. Nakajima, 
 Y. Honda, O. Kitao, H. Nakai, T. Vreven, J. A. Montgomery, Jr., 
 J. E. Peralta, F. Ogliaro, M. Bearpark, J. J. Heyd, E. Brothers, 
 K. N. Kudin, V. N. Staroverov, T. Keith, R. Kobayashi, J. Normand, 
 K. Raghavachari, A. Rendell, J. C. Burant, S. S. Iyengar, J. Tomasi, 
 M. Cossi, N. Rega, J. M. Millam, M. Klene, J. E. Knox, J. B. Cross, 
 V. Bakken, C. Adamo, J. Jaramillo, R. Gomperts, R. E. Stratmann, 
 O. Yazyev, A. J. Austin, R. Cammi, C. Pomelli, J. W. Ochterski, 
 R. L. Martin, K. Morokuma, V. G. Zakrzewski, G. A. Voth, 
 P. Salvador, J. J. Dannenberg, S. Dapprich, A. D. Daniels, 
 O. Farkas, J. B. Foresman, J. V. Ortiz, J. Cioslowski, 
 and D. J. Fox, Gaussian, Inc., Wallingford CT, 2013.
 
 ******************************************
 Gaussian 09:  EM64L-G09RevD.01 24-Apr-2013
                16-May-2022 
 ******************************************
 %Mem=16GB
 %NProcShared=8
 Will use up to    8 processors via shared memory.
 ----------------------------------------------------------------------
 #P M062X/6-31+G** EmpiricalDispersion=GD3 SCRF(SMD,solvent=DiMethylSul
 foxide) Opt Freq
 ----------------------------------------------------------------------
 1/14=-1,18=20,19=15,26=3,38=1/1,3;
 2/9=110,12=2,17=6,18=5,40=1/2;
 3/5=1,6=6,7=111,11=2,16=1,25=1,30=1,70=32201,71=1,72=21,74=-55,124=31/1,2,3;
 4//1;
 5/5=2,38=5,53=21/2;
 6/7=2,8=2,9=2,10=2,28=1/1;
 7//1,2,3,16;
 1/14=-1,18=20,19=15,26=3/3(2);
 2/9=110/2;
 99//99;
 2/9=110/2;
 3/5=1,6=6,7=111,11=2,16=1,25=1,30=1,70=32205,71=1,72=21,74=-55,124=31/1,2,3;
 4/5=5,16=3,69=1/1;
 5/5=2,38=5,53=21/2;
 7//1,2,3,16;
 1/14=-1,18=20,19=15,26=3/3(-5);
 2/9=110/2;
 6/7=2,8=2,9=2,10=2,19=2,28=1/1;
 99/9=1/99;
 Leave Link    1 at Mon May 16 17:19:05 2022, MaxMem=  2147483648 cpu:         0.9
 (Enter /gpfs/runtime/opt/gaussian/g09-D01/g09/l101.exe)
 --------
 872-36-6
 --------
 Symbolic Z-matrix:
 Charge =  1 Multiplicity = 1
 O                    -1.9336    0.       -0.0008 
 C                    -0.7179    0.       -0.0011 
 O                     0.0735    1.0847    0.0009 
 C                     1.3613    0.6617    0.0002 
 C                     1.3613   -0.6617   -0.0022 
 O                     0.0735   -1.0847    0.0024 
 H                     2.2361    1.2951    0.0009 
 H                     2.2361   -1.2951   -0.0038 
 Li                    0.5863   -4.0847   -0.0004 
 
 Add virtual bond connecting atoms Li9        and O6         Dist= 5.75D+00.
 NAtoms=      9 NQM=        9 NQMF=       0 NMMI=      0 NMMIF=      0
                NMic=       0 NMicF=      0.
                    Isotopes and Nuclear Properties:
 (Nuclear quadrupole moments (NQMom) in fm**2, nuclear magnetic moments (NMagM)
  in nuclear magnetons)

  Atom         1           2           3           4           5           6           7           8           9
 IAtWgt=          16          12          16          12          12          16           1           1           7
 AtmWgt=  15.9949146  12.0000000  15.9949146  12.0000000  12.0000000  15.9949146   1.0078250   1.0078250   7.0160045
 NucSpn=           0           0           0           0           0           0           1           1           3
 AtZEff=   0.0000000   0.0000000   0.0000000   0.0000000   0.0000000   0.0000000   0.0000000   0.0000000   0.0000000
 NQMom=    0.0000000   0.0000000   0.0000000   0.0000000   0.0000000   0.0000000   0.0000000   0.0000000  -4.0100000
 NMagM=    0.0000000   0.0000000   0.0000000   0.0000000   0.0000000   0.0000000   2.7928460   2.7928460   3.2564240
 AtZNuc=   8.0000000   6.0000000   8.0000000   6.0000000   6.0000000   8.0000000   1.0000000   1.0000000   3.0000000
 Leave Link  101 at Mon May 16 17:19:05 2022, MaxMem=  2147483648 cpu:         2.5
 (Enter /gpfs/runtime/opt/gaussian/g09-D01/g09/l103.exe)

 GradGradGradGradGradGradGradGradGradGradGradGradGradGradGradGradGradGrad
 Berny optimization.
 Initialization pass.
                           ----------------------------
                           !    Initial Parameters    !
                           ! (Angstroms and Degrees)  !
 --------------------------                            --------------------------
 ! Name  Definition              Value          Derivative Info.                !
 --------------------------------------------------------------------------------
 ! R1    R(1,2)                  1.2157         estimate D2E/DX2                !
 ! R2    R(2,3)                  1.3427         estimate D2E/DX2                !
 ! R3    R(2,6)                  1.3427         estimate D2E/DX2                !
 ! R4    R(3,4)                  1.3555         estimate D2E/DX2                !
 ! R5    R(4,5)                  1.3234         estimate D2E/DX2                !
 ! R6    R(4,7)                  1.08           estimate D2E/DX2                !
 ! R7    R(5,6)                  1.3555         estimate D2E/DX2                !
 ! R8    R(5,8)                  1.08           estimate D2E/DX2                !
 ! R9    R(6,9)                  3.0435         estimate D2E/DX2                !
 ! A1    A(1,2,3)              126.1145         estimate D2E/DX2                !
 ! A2    A(1,2,6)              126.1144         estimate D2E/DX2                !
 ! A3    A(3,2,6)              107.7705         estimate D2E/DX2                !
 ! A4    A(2,3,4)              107.9309         estimate D2E/DX2                !
 ! A5    A(3,4,5)              108.1837         estimate D2E/DX2                !
 ! A6    A(3,4,7)              125.9098         estimate D2E/DX2                !
 ! A7    A(5,4,7)              125.9065         estimate D2E/DX2                !
 ! A8    A(4,5,6)              108.1831         estimate D2E/DX2                !
 ! A9    A(4,5,8)              125.9065         estimate D2E/DX2                !
 ! A10   A(6,5,8)              125.91           estimate D2E/DX2                !
 ! A11   A(2,6,5)              107.9302         estimate D2E/DX2                !
 ! A12   A(2,6,9)              153.5847         estimate D2E/DX2                !
 ! A13   A(5,6,9)               98.4834         estimate D2E/DX2                !
 ! D1    D(1,2,3,4)            179.9789         estimate D2E/DX2                !
 ! D2    D(6,2,3,4)              0.2429         estimate D2E/DX2                !
 ! D3    D(1,2,6,5)            179.8738         estimate D2E/DX2                !
 ! D4    D(1,2,6,9)              0.5456         estimate D2E/DX2                !
 ! D5    D(3,2,6,5)             -0.3902         estimate D2E/DX2                !
 ! D6    D(3,2,6,9)           -179.7183         estimate D2E/DX2                !
 ! D7    D(2,3,4,5)              0.0004         estimate D2E/DX2                !
 ! D8    D(2,3,4,7)            179.968          estimate D2E/DX2                !
 ! D9    D(3,4,5,6)             -0.2418         estimate D2E/DX2                !
 ! D10   D(3,4,5,8)            179.9675         estimate D2E/DX2                !
 ! D11   D(7,4,5,6)            179.7906         estimate D2E/DX2                !
 ! D12   D(7,4,5,8)             -0.0002         estimate D2E/DX2                !
 ! D13   D(4,5,6,2)              0.3931         estimate D2E/DX2                !
 ! D14   D(4,5,6,9)           -179.9091         estimate D2E/DX2                !
 ! D15   D(8,5,6,2)           -179.8161         estimate D2E/DX2                !
 ! D16   D(8,5,6,9)             -0.1183         estimate D2E/DX2                !
 --------------------------------------------------------------------------------
 Trust Radius=3.00D-01 FncErr=1.00D-07 GrdErr=1.00D-06
 Number of steps in this run=     48 maximum allowed number of steps=    100.
 GradGradGradGradGradGradGradGradGradGradGradGradGradGradGradGradGradGrad

 Leave Link  103 at Mon May 16 17:19:05 2022, MaxMem=  2147483648 cpu:         0.2
 (Enter /gpfs/runtime/opt/gaussian/g09-D01/g09/l202.exe)
                          Input orientation:                          
 ---------------------------------------------------------------------
 Center     Atomic      Atomic             Coordinates (Angstroms)
 Number     Number       Type             X           Y           Z
 ---------------------------------------------------------------------
      1          8           0       -1.933600    0.000000   -0.000800
      2          6           0       -0.717900    0.000000   -0.001100
      3          8           0        0.073500    1.084700    0.000900
      4          6           0        1.361300    0.661700    0.000200
      5          6           0        1.361300   -0.661700   -0.002200
      6          8           0        0.073500   -1.084700    0.002400
      7          1           0        2.236100    1.295100    0.000900
      8          1           0        2.236100   -1.295100   -0.003800
      9          3           0        0.586300   -4.084700   -0.000400
 ---------------------------------------------------------------------
                    Distance matrix (angstroms):
                    1          2          3          4          5
     1  O    0.000000
     2  C    1.215700   0.000000
     3  O    2.281453   1.342718   0.000000
     4  C    3.360687   2.181954   1.355492   0.000000
     5  C    3.360687   2.181953   2.169874   1.323402   0.000000
     6  O    2.281455   1.342721   2.169401   2.169872   1.355500
     7  H    4.366198   3.225431   2.172811   1.080033   2.143444
     8  H    4.366199   3.225431   3.215635   2.143445   1.080034
     9  Li   4.799445   4.287856   5.194773   4.809255   3.509638
                    6          7          8          9
     6  O    0.000000
     7  H    3.215632   0.000000
     8  H    2.172820   2.590204   0.000000
     9  Li   3.043513   5.627085   3.240944   0.000000
 Stoichiometry    C3H2LiO3(1+)
 Framework group  C1[X(C3H2LiO3)]
 Deg. of freedom    21
 Full point group                 C1      NOp   1
 Largest Abelian subgroup         C1      NOp   1
 Largest concise Abelian subgroup C1      NOp   1
                         Standard orientation:                         
 ---------------------------------------------------------------------
 Center     Atomic      Atomic             Coordinates (Angstroms)
 Number     Number       Type             X           Y           Z
 ---------------------------------------------------------------------
      1          8           0        1.178867   -1.658478    0.000743
      2          6           0        0.607309   -0.585516    0.001043
      3          8           0        1.192578    0.622933   -0.000957
      4          6           0        0.213788    1.560658   -0.000257
      5          6           0       -0.954229    0.938466    0.002143
      6          8           0       -0.722109   -0.397004   -0.002457
      7          1           0        0.361535    2.630537   -0.000957
      8          1           0       -1.924545    1.412763    0.003743
      9          3           0       -3.610965   -1.354853    0.000343
 ---------------------------------------------------------------------
 Rotational constants (GHZ):      4.3098123      3.0547474      1.7876706
 Leave Link  202 at Mon May 16 17:19:05 2022, MaxMem=  2147483648 cpu:         0.3
 (Enter /gpfs/runtime/opt/gaussian/g09-D01/g09/l301.exe)
 Standard basis: 6-31+G(d,p) (6D, 7F)
 Ernie: Thresh=  0.10000D-02 Tol=  0.10000D-05 Strict=F.
 There are   143 symmetry adapted cartesian basis functions of A   symmetry.
 There are   143 symmetry adapted basis functions of A   symmetry.
   143 basis functions,   238 primitive gaussians,   143 cartesian basis functions
    23 alpha electrons       23 beta electrons
       nuclear repulsion energy       248.3276247471 Hartrees.
 IExCor= 4336 DFT=T Ex+Corr=M062X ExCW=0 ScaHFX=  0.540000
 ScaDFX=  1.000000  1.000000  1.000000  1.000000 ScalE2=  1.000000  1.000000
 IRadAn=      0 IRanWt=     -1 IRanGd=            0 ICorTp=0 IEmpDi=131
 NAtoms=    9 NActive=    9 NUniq=    9 SFac= 1.00D+00 NAtFMM=   60 NAOKFM=F Big=F
 Integral buffers will be    131072 words long.
 Raffenetti 2 integral format.
 Two-electron integral symmetry is turned on.
 R6Disp:  Grimme-D3 Dispersion energy=       -0.0001864942 Hartrees.
 Nuclear repulsion after empirical dispersion term =      248.3274382529 Hartrees.
 ------------------------------------------------------------------------------
 Polarizable Continuum Model (PCM)
 =================================
 Model                : PCM (using non-symmetric T matrix).
 Atomic radii         : SMD-Coulomb.
 Polarization charges : Total charges.
 Charge compensation  : None.
 Solution method      : On-the-fly selection.
 Cavity type          : VdW (van der Waals Surface) (Alpha=1.000).
 Cavity algorithm     : GePol (No added spheres)
                        Default sphere list used, NSphG=    9.
                        Lebedev-Laikov grids with approx.  5.0 points / Ang**2.
                        Smoothing algorithm: Karplus/York (Gamma=1.0000).
                        Polarization charges: spherical gaussians, with
                                              point-specific exponents (IZeta= 3).
                        Self-potential: point-specific (ISelfS= 7).
                        Self-field    : sphere-specific E.n sum rule (ISelfD= 2).
 1st derivatives      : Analytical E(r).r(x)/FMM algorithm (CHGder, D1EAlg=3).
                        Cavity 1st derivative terms included.
 Solvent              : DiMethylSulfoxide, Eps=  46.826000 Eps(inf)=   2.007889
 ------------------------------------------------------------------------------
 Spheres list:
 ISph  on   Nord     Re0    Alpha      Xe            Ye            Ze
    1   O      1    2.2940  1.000      1.178867     -1.658478      0.000743
    2   C      2    1.8500  1.000      0.607309     -0.585516      0.001043
    3   O      3    2.2940  1.000      1.192578      0.622933     -0.000957
    4   C      4    1.8500  1.000      0.213788      1.560658     -0.000257
    5   C      5    1.8500  1.000     -0.954229      0.938466      0.002143
    6   O      6    2.2940  1.000     -0.722109     -0.397004     -0.002457
    7   H      7    1.2000  1.000      0.361535      2.630537     -0.000957
    8   H      8    1.2000  1.000     -1.924545      1.412763      0.003743
    9  Li      9    1.8200  1.000     -3.610965     -1.354853      0.000343
 ------------------------------------------------------------------------------
 GePol: Number of generator spheres                  =       9
 GePol: Total number of spheres                      =       9
 GePol: Number of exposed spheres                    =       9 (100.00%)
 GePol: Number of points                             =    1223
 GePol: Average weight of points                     =       0.13
 GePol: Minimum weight of points                     =   0.33D-08
 GePol: Maximum weight of points                     =    0.17992
 GePol: Number of points with low weight             =      49
 GePol: Fraction of low-weight points (<1% of avg)   =       4.01%
 GePol: Cavity surface area                          =    157.821 Ang**2
 GePol: Cavity volume                                =    144.927 Ang**3
 ------------------------------------------------------------------------------
 Atomic radii for non-electrostatic terms: SMD-CDS.
 ------------------------------------------------------------------------------
 PCM non-electrostatic energy =         0.0021200260 Hartrees.
 Nuclear repulsion after PCM non-electrostatic terms =      248.3295582789 Hartrees.
 Leave Link  301 at Mon May 16 17:19:06 2022, MaxMem=  2147483648 cpu:         0.9
 (Enter /gpfs/runtime/opt/gaussian/g09-D01/g09/l302.exe)
 NPDir=0 NMtPBC=     1 NCelOv=     1 NCel=       1 NClECP=     1 NCelD=      1
         NCelK=      1 NCelE2=     1 NClLst=     1 CellRange=     0.0.
 One-electron integrals computed using PRISM.
 NBasis=   143 RedAO= T EigKep=  4.15D-05  NBF=   143
 NBsUse=   143 1.00D-06 EigRej= -1.00D+00 NBFU=   143
 Precomputing XC quadrature grid using
 IXCGrd= 4 IRadAn=           0 IRanWt=          -1 IRanGd=           0 AccXCQ= 0.00D+00.
 Generated NRdTot=       0 NPtTot=           0 NUsed=           0 NTot=          32
 NSgBfM=   143   143   143   143   143 MxSgAt=     9 MxSgA2=     9.
 Leave Link  302 at Mon May 16 17:19:06 2022, MaxMem=  2147483648 cpu:         0.9
 (Enter /gpfs/runtime/opt/gaussian/g09-D01/g09/l303.exe)
 DipDrv:  MaxL=1.
 Leave Link  303 at Mon May 16 17:19:06 2022, MaxMem=  2147483648 cpu:         0.7
 (Enter /gpfs/runtime/opt/gaussian/g09-D01/g09/l401.exe)
 ExpMin= 7.40D-03 ExpMax= 5.48D+03 ExpMxC= 8.25D+02 IAcc=3 IRadAn=         5 AccDes= 0.00D+00
 Harris functional with IExCor= 1009 and IRadAn=       5 diagonalized for initial guess.
 HarFok:  IExCor= 1009 AccDes= 0.00D+00 IRadAn=         5 IDoV= 1 UseB2=F ITyADJ=14
 ICtDFT=  3500011 ScaDFX=  1.000000  1.000000  1.000000  1.000000
 FoFCou: FMM=F IPFlag=           0 FMFlag=      100000 FMFlg1=           0
         NFxFlg=           0 DoJE=T BraDBF=F KetDBF=T FulRan=T
         wScrn=  0.000000 ICntrl=     500 IOpCl=  0 I1Cent=   200000004 NGrid=           0
         NMat0=    1 NMatS0=      1 NMatT0=    0 NMatD0=    1 NMtDS0=    0 NMtDT0=    0
 Petite list used in FoFCou.
 Harris En= -348.214254198895    
 JPrj=0 DoOrth=F DoCkMO=F.
 Leave Link  401 at Mon May 16 17:19:06 2022, MaxMem=  2147483648 cpu:         3.0
 (Enter /gpfs/runtime/opt/gaussian/g09-D01/g09/l502.exe)
 Closed shell SCF:
 Using DIIS extrapolation, IDIIS=  1040.
 Integral symmetry usage will be decided dynamically.
 Keep R1 ints in memory in canonical form, NReq=57722621.
 IVT=       82101 IEndB=       82101 NGot=  2147483648 MDV=  2094392592
 LenX=  2094392592 LenY=  2094371702
 Requested convergence on RMS density matrix=1.00D-08 within 128 cycles.
 Requested convergence on MAX density matrix=1.00D-06.
 Requested convergence on             energy=1.00D-06.
 No special actions if energy rises.
 FoFCou: FMM=F IPFlag=           0 FMFlag=           0 FMFlg1=           0
         NFxFlg=           0 DoJE=F BraDBF=F KetDBF=F FulRan=T
         wScrn=  0.000000 ICntrl=     600 IOpCl=  0 I1Cent=           0 NGrid=           0
         NMat0=    1 NMatS0=  10296 NMatT0=    0 NMatD0=    1 NMtDS0=    0 NMtDT0=    0
 Symmetry not used in FoFCou.

 Cycle   1  Pass 1  IDiag  1:
 Inv3:  Mode=1 IEnd=     4487187.
 Iteration    1 A*A^-1 deviation from unit magnitude is 5.55D-15 for     16.
 Iteration    1 A*A^-1 deviation from orthogonality  is 3.17D-15 for   1149    656.
 Iteration    1 A^-1*A deviation from unit magnitude is 5.22D-15 for    749.
 Iteration    1 A^-1*A deviation from orthogonality  is 4.21D-10 for    748    509.
 Iteration    2 A*A^-1 deviation from unit magnitude is 7.55D-15 for    247.
 Iteration    2 A*A^-1 deviation from orthogonality  is 7.27D-15 for    422     44.
 Iteration    2 A^-1*A deviation from unit magnitude is 1.67D-15 for    222.
 Iteration    2 A^-1*A deviation from orthogonality  is 9.79D-16 for    933    465.
 E= -348.364672599083    
 DIIS: error= 3.73D-02 at cycle   1 NSaved=   1.
 NSaved= 1 IEnMin= 1 EnMin= -348.364672599083     IErMin= 1 ErrMin= 3.73D-02
 ErrMax= 3.73D-02  0.00D+00 EMaxC= 1.00D-01 BMatC= 1.70D-01 BMatP= 1.70D-01
 IDIUse=3 WtCom= 6.27D-01 WtEn= 3.73D-01
 Coeff-Com:  0.100D+01
 Coeff-En:   0.100D+01
 Coeff:      0.100D+01
 Gap=     0.254 Goal=   None    Shift=    0.000
 GapD=    0.254 DampG=1.000 DampE=0.500 DampFc=0.5000 IDamp=-1.
 Damping current iteration by 5.00D-01
 RMSDP=6.04D-03 MaxDP=1.71D-01              OVMax= 2.04D-01

 Cycle   2  Pass 1  IDiag  1:
 E= -348.408628717568     Delta-E=       -0.043956118485 Rises=F Damp=T
 DIIS: error= 1.20D-02 at cycle   2 NSaved=   2.
 NSaved= 2 IEnMin= 2 EnMin= -348.408628717568     IErMin= 2 ErrMin= 1.20D-02
 ErrMax= 1.20D-02  0.00D+00 EMaxC= 1.00D-01 BMatC= 2.21D-02 BMatP= 1.70D-01
 IDIUse=3 WtCom= 8.80D-01 WtEn= 1.20D-01
 Coeff-Com:  0.834D-01 0.917D+00
 Coeff-En:   0.193D+00 0.807D+00
 Coeff:      0.966D-01 0.903D+00
 Gap=     0.284 Goal=   None    Shift=    0.000
 RMSDP=1.72D-03 MaxDP=4.93D-02 DE=-4.40D-02 OVMax= 1.46D-01

 Cycle   3  Pass 1  IDiag  1:
 E= -348.473297167995     Delta-E=       -0.064668450427 Rises=F Damp=F
 DIIS: error= 7.32D-03 at cycle   3 NSaved=   3.
 NSaved= 3 IEnMin= 3 EnMin= -348.473297167995     IErMin= 3 ErrMin= 7.32D-03
 ErrMax= 7.32D-03  0.00D+00 EMaxC= 1.00D-01 BMatC= 8.00D-03 BMatP= 2.21D-02
 IDIUse=3 WtCom= 9.27D-01 WtEn= 7.32D-02
 Coeff-Com: -0.701D-01 0.360D+00 0.710D+00
 Coeff-En:   0.000D+00 0.000D+00 0.100D+01
 Coeff:     -0.650D-01 0.334D+00 0.731D+00
 Gap=     0.299 Goal=   None    Shift=    0.000
 RMSDP=7.26D-04 MaxDP=2.22D-02 DE=-6.47D-02 OVMax= 3.18D-02

 Cycle   4  Pass 1  IDiag  1:
 E= -348.478531240834     Delta-E=       -0.005234072839 Rises=F Damp=F
 DIIS: error= 2.17D-03 at cycle   4 NSaved=   4.
 NSaved= 4 IEnMin= 4 EnMin= -348.478531240834     IErMin= 4 ErrMin= 2.17D-03
 ErrMax= 2.17D-03  0.00D+00 EMaxC= 1.00D-01 BMatC= 1.30D-03 BMatP= 8.00D-03
 IDIUse=3 WtCom= 9.78D-01 WtEn= 2.17D-02
 Coeff-Com: -0.328D-01 0.849D-01 0.351D+00 0.597D+00
 Coeff-En:   0.000D+00 0.000D+00 0.832D-01 0.917D+00
 Coeff:     -0.321D-01 0.830D-01 0.345D+00 0.604D+00
 Gap=     0.293 Goal=   None    Shift=    0.000
 RMSDP=2.16D-04 MaxDP=5.44D-03 DE=-5.23D-03 OVMax= 9.04D-03

 Cycle   5  Pass 1  IDiag  1:
 E= -348.479482741920     Delta-E=       -0.000951501086 Rises=F Damp=F
 DIIS: error= 5.12D-04 at cycle   5 NSaved=   5.
 NSaved= 5 IEnMin= 5 EnMin= -348.479482741920     IErMin= 5 ErrMin= 5.12D-04
 ErrMax= 5.12D-04  0.00D+00 EMaxC= 1.00D-01 BMatC= 3.81D-05 BMatP= 1.30D-03
 IDIUse=3 WtCom= 9.95D-01 WtEn= 5.12D-03
 Coeff-Com: -0.862D-02 0.149D-01 0.951D-01 0.230D+00 0.668D+00
 Coeff-En:   0.000D+00 0.000D+00 0.000D+00 0.000D+00 0.100D+01
 Coeff:     -0.858D-02 0.148D-01 0.946D-01 0.229D+00 0.670D+00
 Gap=     0.291 Goal=   None    Shift=    0.000
 RMSDP=4.15D-05 MaxDP=9.86D-04 DE=-9.52D-04 OVMax= 1.83D-03

 Cycle   6  Pass 1  IDiag  1:
 E= -348.479513141018     Delta-E=       -0.000030399098 Rises=F Damp=F
 DIIS: error= 9.23D-05 at cycle   6 NSaved=   6.
 NSaved= 6 IEnMin= 6 EnMin= -348.479513141018     IErMin= 6 ErrMin= 9.23D-05
 ErrMax= 9.23D-05  0.00D+00 EMaxC= 1.00D-01 BMatC= 2.89D-06 BMatP= 3.81D-05
 IDIUse=1 WtCom= 1.00D+00 WtEn= 0.00D+00
 Coeff-Com: -0.135D-02 0.500D-03 0.143D-01 0.423D-01 0.258D+00 0.687D+00
 Coeff:     -0.135D-02 0.500D-03 0.143D-01 0.423D-01 0.258D+00 0.687D+00
 Gap=     0.291 Goal=   None    Shift=    0.000
 RMSDP=1.26D-05 MaxDP=2.49D-04 DE=-3.04D-05 OVMax= 5.15D-04

 Cycle   7  Pass 1  IDiag  1:
 E= -348.479515572552     Delta-E=       -0.000002431534 Rises=F Damp=F
 DIIS: error= 2.91D-05 at cycle   7 NSaved=   7.
 NSaved= 7 IEnMin= 7 EnMin= -348.479515572552     IErMin= 7 ErrMin= 2.91D-05
 ErrMax= 2.91D-05  0.00D+00 EMaxC= 1.00D-01 BMatC= 2.04D-07 BMatP= 2.89D-06
 IDIUse=1 WtCom= 1.00D+00 WtEn= 0.00D+00
 Coeff-Com:  0.884D-03-0.192D-02-0.857D-02-0.235D-01-0.143D-01 0.114D+00
 Coeff-Com:  0.933D+00
 Coeff:      0.884D-03-0.192D-02-0.857D-02-0.235D-01-0.143D-01 0.114D+00
 Coeff:      0.933D+00
 Gap=     0.292 Goal=   None    Shift=    0.000
 RMSDP=7.33D-06 MaxDP=1.56D-04 DE=-2.43D-06 OVMax= 2.42D-04

 Cycle   8  Pass 1  IDiag  1:
 E= -348.479515883989     Delta-E=       -0.000000311437 Rises=F Damp=F
 DIIS: error= 1.27D-05 at cycle   8 NSaved=   8.
 NSaved= 8 IEnMin= 8 EnMin= -348.479515883989     IErMin= 8 ErrMin= 1.27D-05
 ErrMax= 1.27D-05  0.00D+00 EMaxC= 1.00D-01 BMatC= 3.08D-08 BMatP= 2.04D-07
 IDIUse=1 WtCom= 1.00D+00 WtEn= 0.00D+00
 Coeff-Com:  0.427D-03-0.680D-03-0.351D-02-0.116D-01-0.243D-01-0.291D-01
 Coeff-Com:  0.300D+00 0.769D+00
 Coeff:      0.427D-03-0.680D-03-0.351D-02-0.116D-01-0.243D-01-0.291D-01
 Coeff:      0.300D+00 0.769D+00
 Gap=     0.291 Goal=   None    Shift=    0.000
 RMSDP=2.16D-06 MaxDP=4.29D-05 DE=-3.11D-07 OVMax= 1.15D-04

 Cycle   9  Pass 1  IDiag  1:
 E= -348.479515922691     Delta-E=       -0.000000038702 Rises=F Damp=F
 DIIS: error= 3.33D-06 at cycle   9 NSaved=   9.
 NSaved= 9 IEnMin= 9 EnMin= -348.479515922691     IErMin= 9 ErrMin= 3.33D-06
 ErrMax= 3.33D-06  0.00D+00 EMaxC= 1.00D-01 BMatC= 2.87D-09 BMatP= 3.08D-08
 IDIUse=1 WtCom= 1.00D+00 WtEn= 0.00D+00
 Coeff-Com:  0.107D-04 0.195D-04 0.347D-03 0.647D-04-0.242D-02-0.174D-01
 Coeff-Com: -0.472D-01 0.137D+00 0.929D+00
 Coeff:      0.107D-04 0.195D-04 0.347D-03 0.647D-04-0.242D-02-0.174D-01
 Coeff:     -0.472D-01 0.137D+00 0.929D+00
 Gap=     0.291 Goal=   None    Shift=    0.000
 RMSDP=9.76D-07 MaxDP=2.23D-05 DE=-3.87D-08 OVMax= 4.45D-05

 Cycle  10  Pass 1  IDiag  1:
 E= -348.479515926384     Delta-E=       -0.000000003693 Rises=F Damp=F
 DIIS: error= 2.50D-06 at cycle  10 NSaved=  10.
 NSaved=10 IEnMin=10 EnMin= -348.479515926384     IErMin=10 ErrMin= 2.50D-06
 ErrMax= 2.50D-06  0.00D+00 EMaxC= 1.00D-01 BMatC= 1.15D-09 BMatP= 2.87D-09
 IDIUse=1 WtCom= 1.00D+00 WtEn= 0.00D+00
 Coeff-Com: -0.468D-04 0.943D-04 0.685D-03 0.155D-02 0.190D-02-0.609D-02
 Coeff-Com: -0.685D-01-0.260D-01 0.538D+00 0.558D+00
 Coeff:     -0.468D-04 0.943D-04 0.685D-03 0.155D-02 0.190D-02-0.609D-02
 Coeff:     -0.685D-01-0.260D-01 0.538D+00 0.558D+00
 Gap=     0.291 Goal=   None    Shift=    0.000
 RMSDP=2.98D-07 MaxDP=8.07D-06 DE=-3.69D-09 OVMax= 1.31D-05

 Cycle  11  Pass 1  IDiag  1:
 E= -348.479515927396     Delta-E=       -0.000000001012 Rises=F Damp=F
 DIIS: error= 2.91D-07 at cycle  11 NSaved=  11.
 NSaved=11 IEnMin=11 EnMin= -348.479515927396     IErMin=11 ErrMin= 2.91D-07
 ErrMax= 2.91D-07  0.00D+00 EMaxC= 1.00D-01 BMatC= 1.64D-11 BMatP= 1.15D-09
 IDIUse=1 WtCom= 1.00D+00 WtEn= 0.00D+00
 Coeff-Com: -0.393D-05 0.493D-05 0.493D-04 0.141D-03 0.435D-03 0.106D-02
 Coeff-Com: -0.291D-02-0.159D-01-0.339D-01 0.574D-01 0.994D+00
 Coeff:     -0.393D-05 0.493D-05 0.493D-04 0.141D-03 0.435D-03 0.106D-02
 Coeff:     -0.291D-02-0.159D-01-0.339D-01 0.574D-01 0.994D+00
 Gap=     0.291 Goal=   None    Shift=    0.000
 RMSDP=7.08D-08 MaxDP=1.09D-06 DE=-1.01D-09 OVMax= 3.65D-06

 Cycle  12  Pass 1  IDiag  1:
 E= -348.479515927413     Delta-E=       -0.000000000017 Rises=F Damp=F
 DIIS: error= 6.72D-08 at cycle  12 NSaved=  12.
 NSaved=12 IEnMin=12 EnMin= -348.479515927413     IErMin=12 ErrMin= 6.72D-08
 ErrMax= 6.72D-08  0.00D+00 EMaxC= 1.00D-01 BMatC= 4.02D-13 BMatP= 1.64D-11
 IDIUse=1 WtCom= 1.00D+00 WtEn= 0.00D+00
 Coeff-Com:  0.195D-05-0.395D-05-0.201D-04-0.523D-04-0.509D-04 0.163D-03
 Coeff-Com:  0.214D-02 0.206D-02-0.167D-01-0.231D-01-0.517D-01 0.109D+01
 Coeff:      0.195D-05-0.395D-05-0.201D-04-0.523D-04-0.509D-04 0.163D-03
 Coeff:      0.214D-02 0.206D-02-0.167D-01-0.231D-01-0.517D-01 0.109D+01
 Gap=     0.291 Goal=   None    Shift=    0.000
 RMSDP=1.22D-08 MaxDP=2.66D-07 DE=-1.72D-11 OVMax= 3.19D-07

 Cycle  13  Pass 1  IDiag  1:
 E= -348.479515927416     Delta-E=       -0.000000000003 Rises=F Damp=F
 DIIS: error= 4.23D-09 at cycle  13 NSaved=  13.
 NSaved=13 IEnMin=13 EnMin= -348.479515927416     IErMin=13 ErrMin= 4.23D-09
 ErrMax= 4.23D-09  0.00D+00 EMaxC= 1.00D-01 BMatC= 5.20D-15 BMatP= 4.02D-13
 IDIUse=1 WtCom= 1.00D+00 WtEn= 0.00D+00
 Coeff-Com:  0.632D-07-0.849D-07-0.465D-07-0.834D-06-0.646D-05-0.335D-04
 Coeff-Com: -0.227D-04 0.342D-03 0.131D-02-0.845D-03-0.231D-01 0.177D-01
 Coeff-Com:  0.100D+01
 Coeff:      0.632D-07-0.849D-07-0.465D-07-0.834D-06-0.646D-05-0.335D-04
 Coeff:     -0.227D-04 0.342D-03 0.131D-02-0.845D-03-0.231D-01 0.177D-01
 Coeff:      0.100D+01
 Gap=     0.291 Goal=   None    Shift=    0.000
 RMSDP=1.23D-09 MaxDP=2.46D-08 DE=-3.18D-12 OVMax= 3.35D-08

 Error on total polarization charges =  0.00910
 SCF Done:  E(RM062X) =  -348.479515927     A.U. after   13 cycles
            NFock= 13  Conv=0.12D-08     -V/T= 2.0082
 KE= 3.456342075024D+02 PE=-1.305747604191D+03 EE= 3.633043224824D+02
 SMD-CDS (non-electrostatic) energy       (kcal/mol) =       1.33
 (included in total energy above)
 Leave Link  502 at Mon May 16 17:19:14 2022, MaxMem=  2147483648 cpu:        53.4
 (Enter /gpfs/runtime/opt/gaussian/g09-D01/g09/l601.exe)
 Copying SCF densities to generalized density rwf, IOpCl= 0 IROHF=0.

 **********************************************************************

            Population analysis using the SCF density.

 **********************************************************************

 Orbital symmetries:
       Occupied  (A) (A) (A) (A) (A) (A) (A) (A) (A) (A) (A) (A)
                 (A) (A) (A) (A) (A) (A) (A) (A) (A) (A) (A)
       Virtual   (A) (A) (A) (A) (A) (A) (A) (A) (A) (A) (A) (A)
                 (A) (A) (A) (A) (A) (A) (A) (A) (A) (A) (A) (A)
                 (A) (A) (A) (A) (A) (A) (A) (A) (A) (A) (A) (A)
                 (A) (A) (A) (A) (A) (A) (A) (A) (A) (A) (A) (A)
                 (A) (A) (A) (A) (A) (A) (A) (A) (A) (A) (A) (A)
                 (A) (A) (A) (A) (A) (A) (A) (A) (A) (A) (A) (A)
                 (A) (A) (A) (A) (A) (A) (A) (A) (A) (A) (A) (A)
                 (A) (A) (A) (A) (A) (A) (A) (A) (A) (A) (A) (A)
                 (A) (A) (A) (A) (A) (A) (A) (A) (A) (A) (A) (A)
                 (A) (A) (A) (A) (A) (A) (A) (A) (A) (A) (A) (A)
 The electronic state is 1-A.
 Alpha  occ. eigenvalues --  -19.75358 -19.74783 -19.65926 -10.76112 -10.62636
 Alpha  occ. eigenvalues --  -10.62512  -2.23236  -1.35275  -1.22610  -1.18376
 Alpha  occ. eigenvalues --   -0.89992  -0.77889  -0.75293  -0.65017  -0.63343
 Alpha  occ. eigenvalues --   -0.57065  -0.54985  -0.50900  -0.49801  -0.49199
 Alpha  occ. eigenvalues --   -0.45496  -0.40193  -0.31269
 Alpha virt. eigenvalues --   -0.02121   0.00141   0.00433   0.00508   0.01862
 Alpha virt. eigenvalues --    0.03606   0.03792   0.04708   0.05040   0.05178
 Alpha virt. eigenvalues --    0.05343   0.06020   0.07047   0.07411   0.08360
 Alpha virt. eigenvalues --    0.09685   0.09726   0.10634   0.13450   0.14306
 Alpha virt. eigenvalues --    0.15219   0.16494   0.17249   0.17527   0.19036
 Alpha virt. eigenvalues --    0.21338   0.22507   0.24248   0.24647   0.25625
 Alpha virt. eigenvalues --    0.25865   0.27255   0.29326   0.29380   0.29810
 Alpha virt. eigenvalues --    0.30699   0.31354   0.31932   0.35751   0.35990
 Alpha virt. eigenvalues --    0.39510   0.41366   0.45263   0.47955   0.50812
 Alpha virt. eigenvalues --    0.52007   0.52351   0.52874   0.55467   0.59809
 Alpha virt. eigenvalues --    0.68086   0.70621   0.71142   0.74290   0.76658
 Alpha virt. eigenvalues --    0.84184   0.90556   0.91364   0.92788   0.94840
 Alpha virt. eigenvalues --    0.99910   1.10361   1.17306   1.18681   1.21280
 Alpha virt. eigenvalues --    1.23567   1.24562   1.28530   1.30208   1.34491
 Alpha virt. eigenvalues --    1.35047   1.35292   1.35865   1.36792   1.41422
 Alpha virt. eigenvalues --    1.43792   1.44878   1.47997   1.48745   1.57974
 Alpha virt. eigenvalues --    1.64460   1.68256   1.80995   1.81819   1.83636
 Alpha virt. eigenvalues --    1.90170   1.91504   1.95894   1.99169   2.05336
 Alpha virt. eigenvalues --    2.07980   2.12448   2.13397   2.23013   2.23459
 Alpha virt. eigenvalues --    2.33114   2.35640   2.43756   2.54180   2.56936
 Alpha virt. eigenvalues --    2.63923   2.69978   2.72609   2.74635   2.78476
 Alpha virt. eigenvalues --    2.82807   2.93732   2.98516   3.05691   3.09705
 Alpha virt. eigenvalues --    3.22098   3.25640   3.39733   3.72205   4.21260
 Alpha virt. eigenvalues --    4.31100   4.57690   4.64507   4.66140   4.69093
          Condensed to atoms (all electrons):
               1          2          3          4          5          6
     1  O    8.270303   0.469725  -0.102032   0.038068  -0.004566  -0.110289
     2  C    0.469725   4.541460   0.247264  -0.135553  -0.097693   0.162731
     3  O   -0.102032   0.247264   8.325763   0.160613  -0.076213  -0.174404
     4  C    0.038068  -0.135553   0.160613   5.134911   0.600157  -0.057079
     5  C   -0.004566  -0.097693  -0.076213   0.600157   5.032662   0.126781
     6  O   -0.110289   0.162731  -0.174404  -0.057079   0.126781   8.454284
     7  H    0.000001   0.012866  -0.030429   0.379379  -0.027420   0.001496
     8  H    0.000007   0.013499   0.002541  -0.006286   0.359309  -0.034234
     9  Li  -0.003654   0.000505  -0.001154  -0.005692  -0.003117   0.012680
               7          8          9
     1  O    0.000001   0.000007  -0.003654
     2  C    0.012866   0.013499   0.000505
     3  O   -0.030429   0.002541  -0.001154
     4  C    0.379379  -0.006286  -0.005692
     5  C   -0.027420   0.359309  -0.003117
     6  O    0.001496  -0.034234   0.012680
     7  H    0.401123   0.000197  -0.000044
     8  H    0.000197   0.398732  -0.000868
     9  Li  -0.000044  -0.000868   2.006577
 Mulliken charges:
               1
     1  O   -0.557563
     2  C    0.785196
     3  O   -0.351949
     4  C   -0.108519
     5  C    0.090101
     6  O   -0.381966
     7  H    0.262830
     8  H    0.267104
     9  Li   0.994767
 Sum of Mulliken charges =   1.00000
 Mulliken charges with hydrogens summed into heavy atoms:
               1
     1  O   -0.557563
     2  C    0.785196
     3  O   -0.351949
     4  C    0.154311
     5  C    0.357205
     6  O   -0.381966
     9  Li   0.994767
 Electronic spatial extent (au):  <R**2>=            523.2969
 Charge=              1.0000 electrons
 Dipole moment (field-independent basis, Debye):
    X=            -20.1163    Y=             -0.5885    Z=              0.0075  Tot=             20.1250
 Quadrupole moment (field-independent basis, Debye-Ang):
   XX=             27.3547   YY=            -23.4479   ZZ=            -33.7878
   XY=             24.5591   XZ=             -0.0180   YZ=             -0.0013
 Traceless Quadrupole moment (field-independent basis, Debye-Ang):
   XX=             37.3150   YY=            -13.4876   ZZ=            -23.8275
   XY=             24.5591   XZ=             -0.0180   YZ=             -0.0013
 Octapole moment (field-independent basis, Debye-Ang**2):
  XXX=           -257.6969  YYY=              8.5530  ZZZ=             -0.0166  XYY=            -45.3243
  XXY=            -78.1854  XXZ=              0.0332  XZZ=             -4.8716  YZZ=             -5.7197
  YYZ=             -0.0133  XYZ=             -0.0013
 Hexadecapole moment (field-independent basis, Debye-Ang**3):
 XXXX=            591.7981 YYYY=           -243.9651 ZZZZ=            -32.0217 XXXY=            328.8992
 XXXZ=             -0.1030 YYYX=             86.2970 YYYZ=             -0.0130 ZZZX=              0.0136
 ZZZY=             -0.0175 XXYY=             26.7408 XXZZ=            -44.3460 YYZZ=            -58.0536
 XXYZ=             -0.0021 YYXZ=             -0.0479 ZZXY=             10.5850
 N-N= 2.483295582789D+02 E-N=-1.305747604206D+03  KE= 3.456342075024D+02
 No NMR shielding tensors so no spin-rotation constants.
 Leave Link  601 at Mon May 16 17:19:14 2022, MaxMem=  2147483648 cpu:         1.0
 (Enter /gpfs/runtime/opt/gaussian/g09-D01/g09/l701.exe)
 Compute integral first derivatives.
 ... and contract with generalized density number  0.
 R6Disp: Adding Grimme-D3 dispersion energy 1st derivatives to the gradient.
 D1PCM: PCM CHGder 1st derivatives, ID1Alg=3 FixD1E=F DoIter=F DoCFld=F I1PDM=0.
 GePol: Maximum number of non-zero 1st derivatives   =     317
 Leave Link  701 at Mon May 16 17:19:15 2022, MaxMem=  2147483648 cpu:         5.5
 (Enter /gpfs/runtime/opt/gaussian/g09-D01/g09/l702.exe)
 L702 exits ... SP integral derivatives will be done elsewhere.
 Leave Link  702 at Mon May 16 17:19:15 2022, MaxMem=  2147483648 cpu:         0.1
 (Enter /gpfs/runtime/opt/gaussian/g09-D01/g09/l703.exe)
 Compute integral first derivatives, UseDBF=F ICtDFT=           0.
 Integral derivatives from FoFJK, PRISM(SPDF).
 Calling FoFJK, ICntrl=      2127 FMM=F ISym2X=0 I1Cent= 0 IOpClX= 0 NMat=1 NMatS=1 NMatT=0.
 FoFJK:  IHMeth= 1 ICntrl=    2127 DoSepK=F KAlg= 0 I1Cent=   0 FoldK=F
 IRaf=         0 NMat=   1 IRICut=       1 DoRegI=T DoRafI=F ISym2E= 0.
 FoFCou: FMM=F IPFlag=           0 FMFlag=      100000 FMFlg1=         800
         NFxFlg=           0 DoJE=F BraDBF=F KetDBF=F FulRan=T
         wScrn=  0.000000 ICntrl=    2127 IOpCl=  0 I1Cent=           0 NGrid=           0
         NMat0=    1 NMatS0=      1 NMatT0=    0 NMatD0=    1 NMtDS0=    0 NMtDT0=    0
 Symmetry not used in FoFCou.
 Leave Link  703 at Mon May 16 17:19:16 2022, MaxMem=  2147483648 cpu:         7.2
 (Enter /gpfs/runtime/opt/gaussian/g09-D01/g09/l716.exe)
 Dipole        =-7.91437992D+00-2.31520670D-01 2.94355773D-03
 ***** Axes restored to original set *****
 -------------------------------------------------------------------
 Center     Atomic                   Forces (Hartrees/Bohr)
 Number     Number              X              Y              Z
 -------------------------------------------------------------------
      1        8           0.029240656   -0.000803212   -0.000200188
      2        6          -0.033714039    0.004030564    0.000789891
      3        8          -0.015117553    0.018637590   -0.000114609
      4        6           0.024915845   -0.011508124   -0.000247753
      5        6           0.028205337    0.012993282    0.000410151
      6        8          -0.015861227   -0.023817559   -0.000583742
      7        1          -0.009122092    0.010841010   -0.000066324
      8        1          -0.008329593   -0.010629699    0.000034807
      9        3          -0.000217335    0.000256147   -0.000022232
 -------------------------------------------------------------------
 Cartesian Forces:  Max     0.033714039 RMS     0.014279459
 Leave Link  716 at Mon May 16 17:19:16 2022, MaxMem=  2147483648 cpu:         0.3
 (Enter /gpfs/runtime/opt/gaussian/g09-D01/g09/l103.exe)

 GradGradGradGradGradGradGradGradGradGradGradGradGradGradGradGradGradGrad
 Berny optimization.
 FormGI is forming the generalized inverse of G from B-inverse, IUseBI=4.
 Internal  Forces:  Max     0.029270833 RMS     0.008639860
 Search for a local minimum.
 Step number   1 out of a maximum of   48
 All quantities printed in internal units (Hartrees-Bohrs-Radians)
 RMS Force = .86399D-02 SwitMx=.10000D-02 MixMth= 1
 Mixed Optimization -- RFO/linear search
 Second derivative matrix not updated -- first step.
 ITU=  0
     Eigenvalues ---    0.01706   0.02370   0.02421   0.02450   0.02613
     Eigenvalues ---    0.02669   0.02868   0.16000   0.16000   0.22684
     Eigenvalues ---    0.24747   0.24998   0.25000   0.35990   0.35990
     Eigenvalues ---    0.47828   0.49378   0.54297   0.55988   0.59632
     Eigenvalues ---    0.97314
 RFO step:  Lambda=-7.82918751D-03 EMin= 1.70648112D-02
 Linear search not attempted -- first point.
 Iteration  1 RMS(Cart)=  0.03936119 RMS(Int)=  0.00166172
 Iteration  2 RMS(Cart)=  0.00153956 RMS(Int)=  0.00010300
 Iteration  3 RMS(Cart)=  0.00000041 RMS(Int)=  0.00010300
 ITry= 1 IFail=0 DXMaxC= 1.53D-01 DCOld= 1.00D+10 DXMaxT= 3.00D-01 DXLimC= 3.00D+00 Rises=F
 Variable       Old X    -DE/DX   Delta X   Delta X   Delta X     New X
                                 (Linear)    (Quad)   (Total)
    R1        2.29734  -0.02927   0.00000  -0.02984  -0.02984   2.26750
    R2        2.53737   0.00662   0.00000   0.01042   0.01041   2.54778
    R3        2.53738   0.01009   0.00000   0.01696   0.01697   2.55434
    R4        2.56151   0.01947   0.00000   0.03557   0.03556   2.59707
    R5        2.50087   0.01085   0.00000   0.01854   0.01853   2.51940
    R6        2.04097  -0.00100   0.00000  -0.00272  -0.00272   2.03824
    R7        2.56152   0.02225   0.00000   0.04148   0.04149   2.60301
    R8        2.04097  -0.00049   0.00000  -0.00134  -0.00134   2.03963
    R9        5.75141  -0.00033   0.00000  -0.01324  -0.01324   5.73816
    A1        2.20111  -0.00158   0.00000  -0.00449  -0.00451   2.19661
    A2        2.20111  -0.00304   0.00000  -0.01016  -0.01017   2.19094
    A3        1.88095   0.00463   0.00000   0.01469   0.01468   1.89563
    A4        1.88375  -0.00088   0.00000  -0.00662  -0.00664   1.87710
    A5        1.88816  -0.00002   0.00000   0.00244   0.00243   1.89059
    A6        2.19754  -0.01425   0.00000  -0.08619  -0.08618   2.11136
    A7        2.19748   0.01427   0.00000   0.08375   0.08375   2.28124
    A8        1.88815  -0.00139   0.00000  -0.00181  -0.00181   1.88634
    A9        2.19748   0.01459   0.00000   0.08371   0.08370   2.28119
   A10        2.19754  -0.01320   0.00000  -0.08188  -0.08189   2.11566
   A11        1.88374  -0.00233   0.00000  -0.00863  -0.00862   1.87512
   A12        2.68056  -0.00001   0.00000  -0.00023  -0.00023   2.68032
   A13        1.71886   0.00234   0.00000   0.00888   0.00887   1.72773
    D1        3.14123   0.00015   0.00000   0.00461   0.00461  -3.13735
    D2        0.00424  -0.00015   0.00000  -0.00486  -0.00485  -0.00061
    D3        3.13939  -0.00004   0.00000  -0.00137  -0.00135   3.13803
    D4        0.00952  -0.00018   0.00000  -0.00567  -0.00568   0.00384
    D5       -0.00681   0.00026   0.00000   0.00813   0.00808   0.00127
    D6       -3.13668   0.00012   0.00000   0.00383   0.00376  -3.13292
    D7        0.00001   0.00000   0.00000  -0.00028  -0.00032  -0.00031
    D8        3.14103   0.00002   0.00000   0.00032   0.00014   3.14117
    D9       -0.00422   0.00018   0.00000   0.00533   0.00531   0.00110
   D10        3.14102   0.00001   0.00000  -0.00029  -0.00060   3.14042
   D11        3.13794   0.00017   0.00000   0.00481   0.00487  -3.14037
   D12        0.00000   0.00000   0.00000  -0.00081  -0.00104  -0.00104
   D13        0.00686  -0.00029   0.00000  -0.00841  -0.00833  -0.00147
   D14       -3.14001  -0.00023   0.00000  -0.00649  -0.00639   3.13679
   D15       -3.13838  -0.00005   0.00000  -0.00236  -0.00267  -3.14105
   D16       -0.00206   0.00001   0.00000  -0.00043  -0.00073  -0.00279
         Item               Value     Threshold  Converged?
 Maximum Force            0.029271     0.000450     NO 
 RMS     Force            0.008640     0.000300     NO 
 Maximum Displacement     0.152551     0.001800     NO 
 RMS     Displacement     0.038995     0.001200     NO 
 Predicted change in Energy=-4.046963D-03
 Lowest energy point so far.  Saving SCF results.
 GradGradGradGradGradGradGradGradGradGradGradGradGradGradGradGradGradGrad

 Leave Link  103 at Mon May 16 17:19:17 2022, MaxMem=  2147483648 cpu:         1.7
 (Enter /gpfs/runtime/opt/gaussian/g09-D01/g09/l202.exe)
                          Input orientation:                          
 ---------------------------------------------------------------------
 Center     Atomic      Atomic             Coordinates (Angstroms)
 Number     Number       Type             X           Y           Z
 ---------------------------------------------------------------------
      1          8           0       -1.910512   -0.005039   -0.000941
      2          6           0       -0.710615   -0.000315    0.002040
      3          8           0        0.074817    1.095499   -0.000829
      4          6           0        1.381259    0.668964   -0.001235
      5          6           0        1.386885   -0.664231    0.001742
      6          8           0        0.079255   -1.097220    0.002638
      7          1           0        2.195937    1.375826   -0.003767
      8          1           0        2.208089   -1.364632    0.001497
      9          3           0        0.571485   -4.093553   -0.005044
 ---------------------------------------------------------------------
                    Distance matrix (angstroms):
                    1          2          3          4          5
     1  O    0.000000
     2  C    1.199910   0.000000
     3  O    2.269959   1.348228   0.000000
     4  C    3.360065   2.196334   1.374308   0.000000
     5  C    3.362643   2.200066   2.195035   1.333210   0.000000
     6  O    2.269812   1.351701   2.192726   2.194228   1.377453
     7  H    4.332404   3.215874   2.139566   1.078592   2.194636
     8  H    4.337208   3.221831   3.256240   2.195260   1.079323
     9  Li   4.782914   4.289339   5.212768   4.830871   3.524936
                    6          7          8          9
     6  O    0.000000
     7  H    3.255202   0.000000
     8  H    2.145564   2.740491   0.000000
     9  Li   3.036505   5.705520   3.182062   0.000000
 Stoichiometry    C3H2LiO3(1+)
 Framework group  C1[X(C3H2LiO3)]
 Deg. of freedom    21
 Full point group                 C1      NOp   1
 RotChk:  IX=0 Diff= 7.74D-02
 Largest Abelian subgroup         C1      NOp   1
 Largest concise Abelian subgroup C1      NOp   1
                         Standard orientation:                         
 ---------------------------------------------------------------------
 Center     Atomic      Atomic             Coordinates (Angstroms)
 Number     Number       Type             X           Y           Z
 ---------------------------------------------------------------------
      1          8           0        1.076955   -1.709848    0.001044
      2          6           0        0.575856   -0.619584   -0.001937
      3          8           0        1.238915    0.554326    0.000931
      4          6           0        0.301800    1.559582    0.001338
      5          6           0       -0.909741    1.003158   -0.001639
      6          8           0       -0.751692   -0.365197   -0.002536
      7          1           0        0.599772    2.596196    0.003870
      8          1           0       -1.890868    1.452966   -0.001395
      9          3           0       -3.676606   -1.180780    0.005147
 ---------------------------------------------------------------------
 Rotational constants (GHZ):      4.3019617      3.0353320      1.7796644
 Leave Link  202 at Mon May 16 17:19:17 2022, MaxMem=  2147483648 cpu:         0.1
 (Enter /gpfs/runtime/opt/gaussian/g09-D01/g09/l301.exe)
 Standard basis: 6-31+G(d,p) (6D, 7F)
 Ernie: Thresh=  0.10000D-02 Tol=  0.10000D-05 Strict=F.
 There are   143 symmetry adapted cartesian basis functions of A   symmetry.
 There are   143 symmetry adapted basis functions of A   symmetry.
   143 basis functions,   238 primitive gaussians,   143 cartesian basis functions
    23 alpha electrons       23 beta electrons
       nuclear repulsion energy       247.2874806900 Hartrees.
 IExCor= 4336 DFT=T Ex+Corr=M062X ExCW=0 ScaHFX=  0.540000
 ScaDFX=  1.000000  1.000000  1.000000  1.000000 ScalE2=  1.000000  1.000000
 IRadAn=      0 IRanWt=     -1 IRanGd=            0 ICorTp=0 IEmpDi=131
 NAtoms=    9 NActive=    9 NUniq=    9 SFac= 1.00D+00 NAtFMM=   60 NAOKFM=F Big=F
 Integral buffers will be    131072 words long.
 Raffenetti 2 integral format.
 Two-electron integral symmetry is turned on.
 R6Disp:  Grimme-D3 Dispersion energy=       -0.0001876134 Hartrees.
 Nuclear repulsion after empirical dispersion term =      247.2872930766 Hartrees.
 ------------------------------------------------------------------------------
 Polarizable Continuum Model (PCM)
 =================================
 Model                : PCM (using non-symmetric T matrix).
 Atomic radii         : SMD-Coulomb.
 Polarization charges : Total charges.
 Charge compensation  : None.
 Solution method      : On-the-fly selection.
 Cavity type          : VdW (van der Waals Surface) (Alpha=1.000).
 Cavity algorithm     : GePol (No added spheres)
                        Default sphere list used, NSphG=    9.
                        Lebedev-Laikov grids with approx.  5.0 points / Ang**2.
                        Smoothing algorithm: Karplus/York (Gamma=1.0000).
                        Polarization charges: spherical gaussians, with
                                              point-specific exponents (IZeta= 3).
                        Self-potential: point-specific (ISelfS= 7).
                        Self-field    : sphere-specific E.n sum rule (ISelfD= 2).
 1st derivatives      : Analytical E(r).r(x)/FMM algorithm (CHGder, D1EAlg=3).
                        Cavity 1st derivative terms included.
 Solvent              : DiMethylSulfoxide, Eps=  46.826000 Eps(inf)=   2.007889
 ------------------------------------------------------------------------------
 Spheres list:
 ISph  on   Nord     Re0    Alpha      Xe            Ye            Ze
    1   O      1    2.2940  1.000      1.076955     -1.709848      0.001044
    2   C      2    1.8500  1.000      0.575856     -0.619584     -0.001937
    3   O      3    2.2940  1.000      1.238915      0.554326      0.000931
    4   C      4    1.8500  1.000      0.301800      1.559582      0.001338
    5   C      5    1.8500  1.000     -0.909741      1.003158     -0.001639
    6   O      6    2.2940  1.000     -0.751692     -0.365197     -0.002536
    7   H      7    1.2000  1.000      0.599772      2.596196      0.003870
    8   H      8    1.2000  1.000     -1.890868      1.452966     -0.001395
    9  Li      9    1.8200  1.000     -3.676606     -1.180780      0.005147
 ------------------------------------------------------------------------------
 GePol: Number of generator spheres                  =       9
 GePol: Total number of spheres                      =       9
 GePol: Number of exposed spheres                    =       9 (100.00%)
 GePol: Number of points                             =    1224
 GePol: Average weight of points                     =       0.13
 GePol: Minimum weight of points                     =   0.27D-10
 GePol: Maximum weight of points                     =    0.17992
 GePol: Number of points with low weight             =      39
 GePol: Fraction of low-weight points (<1% of avg)   =       3.19%
 GePol: Cavity surface area                          =    157.754 Ang**2
 GePol: Cavity volume                                =    144.978 Ang**3
 ------------------------------------------------------------------------------
 Atomic radii for non-electrostatic terms: SMD-CDS.
 ------------------------------------------------------------------------------
 PCM non-electrostatic energy =         0.0022268651 Hartrees.
 Nuclear repulsion after PCM non-electrostatic terms =      247.2895199418 Hartrees.
 Leave Link  301 at Mon May 16 17:19:17 2022, MaxMem=  2147483648 cpu:         0.5
 (Enter /gpfs/runtime/opt/gaussian/g09-D01/g09/l302.exe)
 NPDir=0 NMtPBC=     1 NCelOv=     1 NCel=       1 NClECP=     1 NCelD=      1
         NCelK=      1 NCelE2=     1 NClLst=     1 CellRange=     0.0.
 One-electron integrals computed using PRISM.
 NBasis=   143 RedAO= T EigKep=  4.45D-05  NBF=   143
 NBsUse=   143 1.00D-06 EigRej= -1.00D+00 NBFU=   143
 Precomputing XC quadrature grid using
 IXCGrd= 4 IRadAn=           0 IRanWt=          -1 IRanGd=           0 AccXCQ= 0.00D+00.
 Generated NRdTot=       0 NPtTot=           0 NUsed=           0 NTot=          32
 NSgBfM=   143   143   143   143   143 MxSgAt=     9 MxSgA2=     9.
 Leave Link  302 at Mon May 16 17:19:17 2022, MaxMem=  2147483648 cpu:         0.9
 (Enter /gpfs/runtime/opt/gaussian/g09-D01/g09/l303.exe)
 DipDrv:  MaxL=1.
 Leave Link  303 at Mon May 16 17:19:17 2022, MaxMem=  2147483648 cpu:         0.2
 (Enter /gpfs/runtime/opt/gaussian/g09-D01/g09/l401.exe)
 Initial guess from the checkpoint file:  "/gpfs/data/yqi27/cgu13/CHEM1560Q/Gaussian/872-36-6/inp5/Gau-242051.chk"
 B after Tr=     0.000000    0.000000    0.000000
         Rot=    0.999635    0.000034   -0.000039    0.027024 Ang=   3.10 deg.
 Guess basis will be translated and rotated to current coordinates.
 JPrj=2 DoOrth=T DoCkMO=T.
 Generating alternative initial guess.
 ExpMin= 7.40D-03 ExpMax= 5.48D+03 ExpMxC= 8.25D+02 IAcc=3 IRadAn=         5 AccDes= 0.00D+00
 Harris functional with IExCor= 1009 and IRadAn=       5 diagonalized for initial guess.
 HarFok:  IExCor= 1009 AccDes= 0.00D+00 IRadAn=         5 IDoV= 1 UseB2=F ITyADJ=14
 ICtDFT=  3500011 ScaDFX=  1.000000  1.000000  1.000000  1.000000
 FoFCou: FMM=F IPFlag=           0 FMFlag=      100000 FMFlg1=           0
         NFxFlg=           0 DoJE=T BraDBF=F KetDBF=T FulRan=T
         wScrn=  0.000000 ICntrl=     500 IOpCl=  0 I1Cent=   200000004 NGrid=           0
         NMat0=    1 NMatS0=      1 NMatT0=    0 NMatD0=    1 NMtDS0=    0 NMtDT0=    0
 Petite list used in FoFCou.
 Harris En= -348.216150371448    
 Leave Link  401 at Mon May 16 17:19:18 2022, MaxMem=  2147483648 cpu:         3.6
 (Enter /gpfs/runtime/opt/gaussian/g09-D01/g09/l502.exe)
 Closed shell SCF:
 Using DIIS extrapolation, IDIIS=  1040.
 Integral symmetry usage will be decided dynamically.
 Keep R1 ints in memory in canonical form, NReq=57725111.
 IVT=       82101 IEndB=       82101 NGot=  2147483648 MDV=  2094392592
 LenX=  2094392592 LenY=  2094371702
 Requested convergence on RMS density matrix=1.00D-08 within 128 cycles.
 Requested convergence on MAX density matrix=1.00D-06.
 Requested convergence on             energy=1.00D-06.
 No special actions if energy rises.
 FoFCou: FMM=F IPFlag=           0 FMFlag=           0 FMFlg1=           0
         NFxFlg=           0 DoJE=F BraDBF=F KetDBF=F FulRan=T
         wScrn=  0.000000 ICntrl=     600 IOpCl=  0 I1Cent=           0 NGrid=           0
         NMat0=    1 NMatS0=  10296 NMatT0=    0 NMatD0=    1 NMtDS0=    0 NMtDT0=    0
 Symmetry not used in FoFCou.

 Cycle   1  Pass 1  IDiag  1:
 Inv3:  Mode=1 IEnd=     4494528.
 Iteration    1 A*A^-1 deviation from unit magnitude is 6.99D-15 for    104.
 Iteration    1 A*A^-1 deviation from orthogonality  is 2.80D-15 for    818    445.
 Iteration    1 A^-1*A deviation from unit magnitude is 6.55D-15 for     86.
 Iteration    1 A^-1*A deviation from orthogonality  is 2.62D-14 for   1054    992.
 E= -348.483442024565    
 DIIS: error= 2.61D-03 at cycle   1 NSaved=   1.
 NSaved= 1 IEnMin= 1 EnMin= -348.483442024565     IErMin= 1 ErrMin= 2.61D-03
 ErrMax= 2.61D-03  0.00D+00 EMaxC= 1.00D-01 BMatC= 9.26D-04 BMatP= 9.26D-04
 IDIUse=3 WtCom= 9.74D-01 WtEn= 2.61D-02
 Coeff-Com:  0.100D+01
 Coeff-En:   0.100D+01
 Coeff:      0.100D+01
 Gap=     0.592 Goal=   None    Shift=    0.000
 GapD=    0.592 DampG=2.000 DampE=1.000 DampFc=2.0000 IDamp=-1.
 RMSDP=6.53D-04 MaxDP=1.51D-02              OVMax= 8.98D-03

 Cycle   2  Pass 1  IDiag  1:
 E= -348.484676959199     Delta-E=       -0.001234934634 Rises=F Damp=F
 DIIS: error= 6.08D-04 at cycle   2 NSaved=   2.
 NSaved= 2 IEnMin= 2 EnMin= -348.484676959199     IErMin= 2 ErrMin= 6.08D-04
 ErrMax= 6.08D-04  0.00D+00 EMaxC= 1.00D-01 BMatC= 6.90D-05 BMatP= 9.26D-04
 IDIUse=3 WtCom= 9.94D-01 WtEn= 6.08D-03
 Coeff-Com:  0.434D-01 0.957D+00
 Coeff-En:   0.000D+00 0.100D+01
 Coeff:      0.431D-01 0.957D+00
 Gap=     0.294 Goal=   None    Shift=    0.000
 RMSDP=1.41D-04 MaxDP=3.30D-03 DE=-1.23D-03 OVMax= 6.39D-03

 Cycle   3  Pass 1  IDiag  1:
 E= -348.484707546750     Delta-E=       -0.000030587551 Rises=F Damp=F
 DIIS: error= 6.43D-04 at cycle   3 NSaved=   3.
 NSaved= 3 IEnMin= 3 EnMin= -348.484707546750     IErMin= 2 ErrMin= 6.08D-04
 ErrMax= 6.43D-04  0.00D+00 EMaxC= 1.00D-01 BMatC= 7.28D-05 BMatP= 6.90D-05
 IDIUse=3 WtCom= 9.94D-01 WtEn= 6.43D-03
 Coeff-Com: -0.581D-01 0.523D+00 0.535D+00
 Coeff-En:   0.000D+00 0.328D+00 0.672D+00
 Coeff:     -0.578D-01 0.522D+00 0.536D+00
 Gap=     0.293 Goal=   None    Shift=    0.000
 RMSDP=5.95D-05 MaxDP=1.60D-03 DE=-3.06D-05 OVMax= 2.03D-03

 Cycle   4  Pass 1  IDiag  1:
 E= -348.484760162594     Delta-E=       -0.000052615844 Rises=F Damp=F
 DIIS: error= 1.47D-04 at cycle   4 NSaved=   4.
 NSaved= 4 IEnMin= 4 EnMin= -348.484760162594     IErMin= 4 ErrMin= 1.47D-04
 ErrMax= 1.47D-04  0.00D+00 EMaxC= 1.00D-01 BMatC= 3.25D-06 BMatP= 6.90D-05
 IDIUse=3 WtCom= 9.99D-01 WtEn= 1.47D-03
 Coeff-Com: -0.242D-01 0.104D+00 0.210D+00 0.709D+00
 Coeff-En:   0.000D+00 0.000D+00 0.000D+00 0.100D+01
 Coeff:     -0.242D-01 0.104D+00 0.210D+00 0.710D+00
 Gap=     0.293 Goal=   None    Shift=    0.000
 RMSDP=1.45D-05 MaxDP=5.03D-04 DE=-5.26D-05 OVMax= 6.94D-04

 Cycle   5  Pass 1  IDiag  1:
 E= -348.484763054139     Delta-E=       -0.000002891545 Rises=F Damp=F
 DIIS: error= 4.55D-05 at cycle   5 NSaved=   5.
 NSaved= 5 IEnMin= 5 EnMin= -348.484763054139     IErMin= 5 ErrMin= 4.55D-05
 ErrMax= 4.55D-05  0.00D+00 EMaxC= 1.00D-01 BMatC= 4.13D-07 BMatP= 3.25D-06
 IDIUse=1 WtCom= 1.00D+00 WtEn= 0.00D+00
 Coeff-Com: -0.233D-02-0.167D-01 0.142D-01 0.284D+00 0.721D+00
 Coeff:     -0.233D-02-0.167D-01 0.142D-01 0.284D+00 0.721D+00
 Gap=     0.293 Goal=   None    Shift=    0.000
 RMSDP=5.86D-06 MaxDP=1.33D-04 DE=-2.89D-06 OVMax= 3.16D-04

 Cycle   6  Pass 1  IDiag  1:
 E= -348.484763483375     Delta-E=       -0.000000429237 Rises=F Damp=F
 DIIS: error= 1.19D-05 at cycle   6 NSaved=   6.
 NSaved= 6 IEnMin= 6 EnMin= -348.484763483375     IErMin= 6 ErrMin= 1.19D-05
 ErrMax= 1.19D-05  0.00D+00 EMaxC= 1.00D-01 BMatC= 3.55D-08 BMatP= 4.13D-07
 IDIUse=1 WtCom= 1.00D+00 WtEn= 0.00D+00
 Coeff-Com:  0.234D-02-0.175D-01-0.305D-01-0.235D-02 0.184D+00 0.864D+00
 Coeff:      0.234D-02-0.175D-01-0.305D-01-0.235D-02 0.184D+00 0.864D+00
 Gap=     0.293 Goal=   None    Shift=    0.000
 RMSDP=2.22D-06 MaxDP=4.61D-05 DE=-4.29D-07 OVMax= 1.25D-04

 Cycle   7  Pass 1  IDiag  1:
 E= -348.484763528991     Delta-E=       -0.000000045615 Rises=F Damp=F
 DIIS: error= 5.63D-06 at cycle   7 NSaved=   7.
 NSaved= 7 IEnMin= 7 EnMin= -348.484763528991     IErMin= 7 ErrMin= 5.63D-06
 ErrMax= 5.63D-06  0.00D+00 EMaxC= 1.00D-01 BMatC= 6.63D-09 BMatP= 3.55D-08
 IDIUse=1 WtCom= 1.00D+00 WtEn= 0.00D+00
 Coeff-Com:  0.117D-02-0.558D-02-0.165D-01-0.232D-01 0.130D-01 0.367D+00
 Coeff-Com:  0.664D+00
 Coeff:      0.117D-02-0.558D-02-0.165D-01-0.232D-01 0.130D-01 0.367D+00
 Coeff:      0.664D+00
 Gap=     0.293 Goal=   None    Shift=    0.000
 RMSDP=8.28D-07 MaxDP=1.90D-05 DE=-4.56D-08 OVMax= 3.31D-05

 Cycle   8  Pass 1  IDiag  1:
 E= -348.484763535683     Delta-E=       -0.000000006693 Rises=F Damp=F
 DIIS: error= 1.46D-06 at cycle   8 NSaved=   8.
 NSaved= 8 IEnMin= 8 EnMin= -348.484763535683     IErMin= 8 ErrMin= 1.46D-06
 ErrMax= 1.46D-06  0.00D+00 EMaxC= 1.00D-01 BMatC= 7.28D-10 BMatP= 6.63D-09
 IDIUse=1 WtCom= 1.00D+00 WtEn= 0.00D+00
 Coeff-Com:  0.200D-04 0.118D-02-0.157D-02-0.585D-02-0.239D-01-0.199D-01
 Coeff-Com:  0.218D+00 0.832D+00
 Coeff:      0.200D-04 0.118D-02-0.157D-02-0.585D-02-0.239D-01-0.199D-01
 Coeff:      0.218D+00 0.832D+00
 Gap=     0.293 Goal=   None    Shift=    0.000
 RMSDP=3.30D-07 MaxDP=6.42D-06 DE=-6.69D-09 OVMax= 1.82D-05

 Cycle   9  Pass 1  IDiag  1:
 E= -348.484763536518     Delta-E=       -0.000000000834 Rises=F Damp=F
 DIIS: error= 5.92D-07 at cycle   9 NSaved=   9.
 NSaved= 9 IEnMin= 9 EnMin= -348.484763536518     IErMin= 9 ErrMin= 5.92D-07
 ErrMax= 5.92D-07  0.00D+00 EMaxC= 1.00D-01 BMatC= 9.87D-11 BMatP= 7.28D-10
 IDIUse=1 WtCom= 1.00D+00 WtEn= 0.00D+00
 Coeff-Com: -0.112D-03 0.117D-02 0.924D-03-0.357D-03-0.131D-01-0.505D-01
 Coeff-Com:  0.266D-01 0.366D+00 0.669D+00
 Coeff:     -0.112D-03 0.117D-02 0.924D-03-0.357D-03-0.131D-01-0.505D-01
 Coeff:      0.266D-01 0.366D+00 0.669D+00
 Gap=     0.293 Goal=   None    Shift=    0.000
 RMSDP=1.08D-07 MaxDP=2.34D-06 DE=-8.34D-10 OVMax= 4.21D-06

 Cycle  10  Pass 1  IDiag  1:
 E= -348.484763536603     Delta-E=       -0.000000000085 Rises=F Damp=F
 DIIS: error= 2.46D-07 at cycle  10 NSaved=  10.
 NSaved=10 IEnMin=10 EnMin= -348.484763536603     IErMin=10 ErrMin= 2.46D-07
 ErrMax= 2.46D-07  0.00D+00 EMaxC= 1.00D-01 BMatC= 1.00D-11 BMatP= 9.87D-11
 IDIUse=1 WtCom= 1.00D+00 WtEn= 0.00D+00
 Coeff-Com: -0.461D-04 0.350D-03 0.524D-03 0.563D-03-0.266D-02-0.175D-01
 Coeff-Com: -0.126D-01 0.540D-01 0.280D+00 0.697D+00
 Coeff:     -0.461D-04 0.350D-03 0.524D-03 0.563D-03-0.266D-02-0.175D-01
 Coeff:     -0.126D-01 0.540D-01 0.280D+00 0.697D+00
 Gap=     0.293 Goal=   None    Shift=    0.000
 RMSDP=3.50D-08 MaxDP=1.04D-06 DE=-8.49D-11 OVMax= 1.12D-06

 Cycle  11  Pass 1  IDiag  1:
 E= -348.484763536620     Delta-E=       -0.000000000017 Rises=F Damp=F
 DIIS: error= 5.97D-08 at cycle  11 NSaved=  11.
 NSaved=11 IEnMin=11 EnMin= -348.484763536620     IErMin=11 ErrMin= 5.97D-08
 ErrMax= 5.97D-08  0.00D+00 EMaxC= 1.00D-01 BMatC= 9.18D-13 BMatP= 1.00D-11
 IDIUse=1 WtCom= 1.00D+00 WtEn= 0.00D+00
 Coeff-Com:  0.115D-05-0.531D-04 0.298D-04 0.236D-03 0.959D-03 0.202D-02
 Coeff-Com: -0.833D-02-0.369D-01-0.321D-02 0.241D+00 0.804D+00
 Coeff:      0.115D-05-0.531D-04 0.298D-04 0.236D-03 0.959D-03 0.202D-02
 Coeff:     -0.833D-02-0.369D-01-0.321D-02 0.241D+00 0.804D+00
 Gap=     0.293 Goal=   None    Shift=    0.000
 RMSDP=1.17D-08 MaxDP=2.53D-07 DE=-1.71D-11 OVMax= 3.42D-07

 Cycle  12  Pass 1  IDiag  1:
 E= -348.484763536616     Delta-E=        0.000000000004 Rises=F Damp=F
 DIIS: error= 6.35D-09 at cycle  12 NSaved=  12.
 NSaved=12 IEnMin=11 EnMin= -348.484763536620     IErMin=12 ErrMin= 6.35D-09
 ErrMax= 6.35D-09  0.00D+00 EMaxC= 1.00D-01 BMatC= 1.02D-14 BMatP= 9.18D-13
 IDIUse=1 WtCom= 1.00D+00 WtEn= 0.00D+00
 Coeff-Com:  0.210D-05-0.171D-04-0.274D-04-0.109D-04 0.116D-03 0.836D-03
 Coeff-Com:  0.296D-03-0.226D-02-0.114D-01-0.292D-01-0.274D-02 0.104D+01
 Coeff:      0.210D-05-0.171D-04-0.274D-04-0.109D-04 0.116D-03 0.836D-03
 Coeff:      0.296D-03-0.226D-02-0.114D-01-0.292D-01-0.274D-02 0.104D+01
 Gap=     0.293 Goal=   None    Shift=    0.000
 RMSDP=2.71D-09 MaxDP=6.06D-08 DE= 3.75D-12 OVMax= 8.04D-08

 Error on total polarization charges =  0.00912
 SCF Done:  E(RM062X) =  -348.484763537     A.U. after   12 cycles
            NFock= 12  Conv=0.27D-08     -V/T= 2.0085
 KE= 3.455521756851D+02 PE=-1.303684308144D+03 EE= 3.623578489805D+02
 SMD-CDS (non-electrostatic) energy       (kcal/mol) =       1.40
 (included in total energy above)
 Leave Link  502 at Mon May 16 17:19:24 2022, MaxMem=  2147483648 cpu:        44.1
 (Enter /gpfs/runtime/opt/gaussian/g09-D01/g09/l701.exe)
 Compute integral first derivatives.
 ... and contract with generalized density number  0.
 R6Disp: Adding Grimme-D3 dispersion energy 1st derivatives to the gradient.
 D1PCM: PCM CHGder 1st derivatives, ID1Alg=3 FixD1E=F DoIter=F DoCFld=F I1PDM=0.
 GePol: Maximum number of non-zero 1st derivatives   =     316
 Leave Link  701 at Mon May 16 17:19:24 2022, MaxMem=  2147483648 cpu:         3.7
 (Enter /gpfs/runtime/opt/gaussian/g09-D01/g09/l702.exe)
 L702 exits ... SP integral derivatives will be done elsewhere.
 Leave Link  702 at Mon May 16 17:19:25 2022, MaxMem=  2147483648 cpu:         0.2
 (Enter /gpfs/runtime/opt/gaussian/g09-D01/g09/l703.exe)
 Compute integral first derivatives, UseDBF=F ICtDFT=           0.
 Integral derivatives from FoFJK, PRISM(SPDF).
 Calling FoFJK, ICntrl=      2127 FMM=F ISym2X=0 I1Cent= 0 IOpClX= 0 NMat=1 NMatS=1 NMatT=0.
 FoFJK:  IHMeth= 1 ICntrl=    2127 DoSepK=F KAlg= 0 I1Cent=   0 FoldK=F
 IRaf=         0 NMat=   1 IRICut=       1 DoRegI=T DoRafI=F ISym2E= 0.
 FoFCou: FMM=F IPFlag=           0 FMFlag=      100000 FMFlg1=         800
         NFxFlg=           0 DoJE=F BraDBF=F KetDBF=F FulRan=T
         wScrn=  0.000000 ICntrl=    2127 IOpCl=  0 I1Cent=           0 NGrid=           0
         NMat0=    1 NMatS0=      1 NMatT0=    0 NMatD0=    1 NMtDS0=    0 NMtDT0=    0
 Symmetry not used in FoFCou.
 Leave Link  703 at Mon May 16 17:19:25 2022, MaxMem=  2147483648 cpu:         7.1
 (Enter /gpfs/runtime/opt/gaussian/g09-D01/g09/l716.exe)
 Dipole        =-7.86906593D+00 1.06976437D-01 8.36533488D-03
 ***** Axes restored to original set *****
 -------------------------------------------------------------------
 Center     Atomic                   Forces (Hartrees/Bohr)
 Number     Number              X              Y              Z
 -------------------------------------------------------------------
      1        8           0.004810340   -0.000333632    0.000321387
      2        6          -0.010110401    0.001651833   -0.000746114
      3        8          -0.003775753    0.003204798    0.000155126
      4        6           0.009187785   -0.012388888    0.000068935
      5        6           0.010354013    0.013882695   -0.000176361
      6        8          -0.002445982   -0.006136337    0.000267406
      7        1          -0.003595414    0.003710172    0.000036213
      8        1          -0.003457345   -0.003519616    0.000052316
      9        3          -0.000967242   -0.000071025    0.000021092
 -------------------------------------------------------------------
 Cartesian Forces:  Max     0.013882695 RMS     0.005398794
 Leave Link  716 at Mon May 16 17:19:26 2022, MaxMem=  2147483648 cpu:         0.2
 (Enter /gpfs/runtime/opt/gaussian/g09-D01/g09/l103.exe)

 GradGradGradGradGradGradGradGradGradGradGradGradGradGradGradGradGradGrad
 Berny optimization.
 Using GEDIIS/GDIIS optimizer.
 FormGI is forming the generalized inverse of G from B-inverse, IUseBI=4.
 Internal  Forces:  Max     0.008124856 RMS     0.002787005
 Search for a local minimum.
 Step number   2 out of a maximum of   48
 All quantities printed in internal units (Hartrees-Bohrs-Radians)
 RMS Force = .27870D-02 SwitMx=.10000D-02 MixMth= 1
 Mixed Optimization -- RFO/linear search
 Update second derivatives using D2CorX and points    1    2
 DE= -5.25D-03 DEPred=-4.05D-03 R= 1.30D+00
 TightC=F SS=  1.41D+00  RLast= 1.84D-01 DXNew= 5.0454D-01 5.5178D-01
 Trust test= 1.30D+00 RLast= 1.84D-01 DXMaxT set to 5.05D-01
 ITU=  1  0
 Use linear search instead of GDIIS.
     Eigenvalues ---    0.01707   0.02375   0.02420   0.02452   0.02612
     Eigenvalues ---    0.02713   0.02911   0.11497   0.16000   0.22686
     Eigenvalues ---    0.24806   0.24996   0.25635   0.35982   0.35992
     Eigenvalues ---    0.47638   0.49374   0.50341   0.55997   0.62980
     Eigenvalues ---    0.97648
 RFO step:  Lambda=-5.15673932D-04 EMin= 1.70680042D-02
 Quartic linear search produced a step of  0.35233.
 Iteration  1 RMS(Cart)=  0.01937692 RMS(Int)=  0.00044033
 Iteration  2 RMS(Cart)=  0.00040900 RMS(Int)=  0.00004413
 Iteration  3 RMS(Cart)=  0.00000005 RMS(Int)=  0.00004413
 ITry= 1 IFail=0 DXMaxC= 7.12D-02 DCOld= 1.00D+10 DXMaxT= 5.05D-01 DXLimC= 3.00D+00 Rises=F
 Variable       Old X    -DE/DX   Delta X   Delta X   Delta X     New X
                                 (Linear)    (Quad)   (Total)
    R1        2.26750  -0.00481  -0.01051   0.00222  -0.00829   2.25921
    R2        2.54778   0.00080   0.00367  -0.00106   0.00262   2.55040
    R3        2.55434   0.00274   0.00598   0.00197   0.00796   2.56231
    R4        2.59707   0.00652   0.01253   0.00473   0.01725   2.61432
    R5        2.51940  -0.00509   0.00653  -0.01750  -0.01099   2.50841
    R6        2.03824  -0.00028  -0.00096  -0.00017  -0.00113   2.03711
    R7        2.60301   0.00812   0.01462   0.00762   0.02223   2.62524
    R8        2.03963  -0.00034  -0.00047  -0.00086  -0.00133   2.03830
    R9        5.73816  -0.00009  -0.00467   0.00873   0.00406   5.74222
    A1        2.19661   0.00132  -0.00159   0.00771   0.00603   2.20264
    A2        2.19094   0.00055  -0.00358   0.00549   0.00181   2.19275
    A3        1.89563  -0.00186   0.00517  -0.01309  -0.00797   1.88765
    A4        1.87710   0.00136  -0.00234   0.00903   0.00670   1.88381
    A5        1.89059   0.00028   0.00086  -0.00159  -0.00075   1.88984
    A6        2.11136  -0.00539  -0.03036  -0.01108  -0.04144   2.06992
    A7        2.28124   0.00511   0.02951   0.01267   0.04219   2.32342
    A8        1.88634  -0.00003  -0.00064  -0.00047  -0.00113   1.88521
    A9        2.28119   0.00504   0.02949   0.01111   0.04059   2.32178
   A10        2.11566  -0.00501  -0.02885  -0.01062  -0.03947   2.07619
   A11        1.87512   0.00025  -0.00304   0.00613   0.00310   1.87822
   A12        2.68032  -0.00294  -0.00008  -0.01671  -0.01680   2.66353
   A13        1.72773   0.00269   0.00313   0.01057   0.01369   1.74142
    D1       -3.13735  -0.00022   0.00162  -0.01567  -0.01406   3.13177
    D2       -0.00061   0.00010  -0.00171   0.00987   0.00812   0.00751
    D3        3.13803   0.00019  -0.00048   0.01180   0.01132  -3.13383
    D4        0.00384   0.00016  -0.00200   0.01420   0.01218   0.01602
    D5        0.00127  -0.00012   0.00285  -0.01364  -0.01072  -0.00945
    D6       -3.13292  -0.00015   0.00132  -0.01124  -0.00986   3.14040
    D7       -0.00031  -0.00004  -0.00011  -0.00215  -0.00228  -0.00259
    D8        3.14117   0.00000   0.00005  -0.00054  -0.00054   3.14063
    D9        0.00110  -0.00003   0.00187  -0.00623  -0.00434  -0.00324
   D10        3.14042   0.00005  -0.00021   0.00359   0.00350  -3.13926
   D11       -3.14037  -0.00008   0.00172  -0.00806  -0.00641   3.13640
   D12       -0.00104   0.00001  -0.00037   0.00176   0.00142   0.00038
   D13       -0.00147   0.00009  -0.00293   0.01225   0.00933   0.00787
   D14        3.13679   0.00009  -0.00225   0.01106   0.00881  -3.13758
   D15       -3.14105   0.00000  -0.00094   0.00352   0.00267  -3.13838
   D16       -0.00279   0.00000  -0.00026   0.00232   0.00215  -0.00064
         Item               Value     Threshold  Converged?
 Maximum Force            0.008125     0.000450     NO 
 RMS     Force            0.002787     0.000300     NO 
 Maximum Displacement     0.071231     0.001800     NO 
 RMS     Displacement     0.019293     0.001200     NO 
 Predicted change in Energy=-7.921871D-04
 Lowest energy point so far.  Saving SCF results.
 GradGradGradGradGradGradGradGradGradGradGradGradGradGradGradGradGradGrad

 Leave Link  103 at Mon May 16 17:19:26 2022, MaxMem=  2147483648 cpu:         0.8
 (Enter /gpfs/runtime/opt/gaussian/g09-D01/g09/l202.exe)
                          Input orientation:                          
 ---------------------------------------------------------------------
 Center     Atomic      Atomic             Coordinates (Angstroms)
 Number     Number       Type             X           Y           Z
 ---------------------------------------------------------------------
      1          8           0       -1.906002   -0.013243    0.003072
      2          6           0       -0.710553   -0.003149   -0.005321
      3          8           0        0.077413    1.092535    0.001074
      4          6           0        1.394719    0.669919    0.000006
      5          6           0        1.406131   -0.657423   -0.003645
      6          8           0        0.088765   -1.098399   -0.000671
      7          1           0        2.175176    1.413520    0.003643
      8          1           0        2.200918   -1.386624   -0.003757
      9          3           0        0.550033   -4.101837    0.001700
 ---------------------------------------------------------------------
                    Distance matrix (angstroms):
                    1          2          3          4          5
     1  O    0.000000
     2  C    1.195521   0.000000
     3  O    2.270833   1.349613   0.000000
     4  C    3.370679   2.210253   1.383437   0.000000
     5  C    3.374202   2.215497   2.197240   1.327396   0.000000
     6  O    2.270830   1.355914   2.190964   2.198287   1.389217
     7  H    4.323385   3.214726   2.122179   1.077993   2.209137
     8  H    4.330475   3.223456   3.264280   2.208923   1.078620
     9  Li   4.769561   4.288166   5.215829   4.845942   3.549215
                    6          7          8          9
     6  O    0.000000
     7  H    3.265404   0.000000
     8  H    2.131731   2.800272   0.000000
     9  Li   3.038654   5.749805   3.177709   0.000000
 Stoichiometry    C3H2LiO3(1+)
 Framework group  C1[X(C3H2LiO3)]
 Deg. of freedom    21
 Full point group                 C1      NOp   1
 RotChk:  IX=0 Diff= 3.08D-02
 Largest Abelian subgroup         C1      NOp   1
 Largest concise Abelian subgroup C1      NOp   1
                         Standard orientation:                         
 ---------------------------------------------------------------------
 Center     Atomic      Atomic             Coordinates (Angstroms)
 Number     Number       Type             X           Y           Z
 ---------------------------------------------------------------------
      1          8           0        1.033709   -1.736004   -0.001979
      2          6           0        0.563162   -0.637004    0.005516
      3          8           0        1.250484    0.524459   -0.001336
      4          6           0        0.334704    1.561399   -0.001312
      5          6           0       -0.885626    1.039131    0.002167
      6          8           0       -0.760807   -0.344465    0.000129
      7          1           0        0.702556    2.574679   -0.005444
      8          1           0       -1.872505    1.474436    0.001590
      9          3           0       -3.696863   -1.127397   -0.002961
 ---------------------------------------------------------------------
 Rotational constants (GHZ):      4.2629920      3.0388440      1.7741599
 Leave Link  202 at Mon May 16 17:19:26 2022, MaxMem=  2147483648 cpu:         0.4
 (Enter /gpfs/runtime/opt/gaussian/g09-D01/g09/l301.exe)
 Standard basis: 6-31+G(d,p) (6D, 7F)
 Ernie: Thresh=  0.10000D-02 Tol=  0.10000D-05 Strict=F.
 There are   143 symmetry adapted cartesian basis functions of A   symmetry.
 There are   143 symmetry adapted basis functions of A   symmetry.
   143 basis functions,   238 primitive gaussians,   143 cartesian basis functions
    23 alpha electrons       23 beta electrons
       nuclear repulsion energy       246.8580633925 Hartrees.
 IExCor= 4336 DFT=T Ex+Corr=M062X ExCW=0 ScaHFX=  0.540000
 ScaDFX=  1.000000  1.000000  1.000000  1.000000 ScalE2=  1.000000  1.000000
 IRadAn=      0 IRanWt=     -1 IRanGd=            0 ICorTp=0 IEmpDi=131
 NAtoms=    9 NActive=    9 NUniq=    9 SFac= 1.00D+00 NAtFMM=   60 NAOKFM=F Big=F
 Integral buffers will be    131072 words long.
 Raffenetti 2 integral format.
 Two-electron integral symmetry is turned on.
 R6Disp:  Grimme-D3 Dispersion energy=       -0.0001880754 Hartrees.
 Nuclear repulsion after empirical dispersion term =      246.8578753171 Hartrees.
 ------------------------------------------------------------------------------
 Polarizable Continuum Model (PCM)
 =================================
 Model                : PCM (using non-symmetric T matrix).
 Atomic radii         : SMD-Coulomb.
 Polarization charges : Total charges.
 Charge compensation  : None.
 Solution method      : On-the-fly selection.
 Cavity type          : VdW (van der Waals Surface) (Alpha=1.000).
 Cavity algorithm     : GePol (No added spheres)
                        Default sphere list used, NSphG=    9.
                        Lebedev-Laikov grids with approx.  5.0 points / Ang**2.
                        Smoothing algorithm: Karplus/York (Gamma=1.0000).
                        Polarization charges: spherical gaussians, with
                                              point-specific exponents (IZeta= 3).
                        Self-potential: point-specific (ISelfS= 7).
                        Self-field    : sphere-specific E.n sum rule (ISelfD= 2).
 1st derivatives      : Analytical E(r).r(x)/FMM algorithm (CHGder, D1EAlg=3).
                        Cavity 1st derivative terms included.
 Solvent              : DiMethylSulfoxide, Eps=  46.826000 Eps(inf)=   2.007889
 ------------------------------------------------------------------------------
 Spheres list:
 ISph  on   Nord     Re0    Alpha      Xe            Ye            Ze
    1   O      1    2.2940  1.000      1.033709     -1.736004     -0.001979
    2   C      2    1.8500  1.000      0.563162     -0.637004      0.005516
    3   O      3    2.2940  1.000      1.250484      0.524459     -0.001336
    4   C      4    1.8500  1.000      0.334704      1.561399     -0.001312
    5   C      5    1.8500  1.000     -0.885626      1.039131      0.002167
    6   O      6    2.2940  1.000     -0.760807     -0.344465      0.000129
    7   H      7    1.2000  1.000      0.702556      2.574679     -0.005444
    8   H      8    1.2000  1.000     -1.872505      1.474436      0.001590
    9  Li      9    1.8200  1.000     -3.696863     -1.127397     -0.002961
 ------------------------------------------------------------------------------
 GePol: Number of generator spheres                  =       9
 GePol: Total number of spheres                      =       9
 GePol: Number of exposed spheres                    =       9 (100.00%)
 GePol: Number of points                             =    1219
 GePol: Average weight of points                     =       0.13
 GePol: Minimum weight of points                     =   0.25D-07
 GePol: Maximum weight of points                     =    0.17992
 GePol: Number of points with low weight             =      44
 GePol: Fraction of low-weight points (<1% of avg)   =       3.61%
 GePol: Cavity surface area                          =    157.943 Ang**2
 GePol: Cavity volume                                =    145.260 Ang**3
 ------------------------------------------------------------------------------
 Atomic radii for non-electrostatic terms: SMD-CDS.
 ------------------------------------------------------------------------------
 PCM non-electrostatic energy =         0.0023114944 Hartrees.
 Nuclear repulsion after PCM non-electrostatic terms =      246.8601868115 Hartrees.
 Leave Link  301 at Mon May 16 17:19:26 2022, MaxMem=  2147483648 cpu:         0.4
 (Enter /gpfs/runtime/opt/gaussian/g09-D01/g09/l302.exe)
 NPDir=0 NMtPBC=     1 NCelOv=     1 NCel=       1 NClECP=     1 NCelD=      1
         NCelK=      1 NCelE2=     1 NClLst=     1 CellRange=     0.0.
[...]
 ---------------------------------------------------------------------
                    Distance matrix (angstroms):
                    1          2          3          4          5
     1  O    0.000000
     2  C    1.237413   0.000000
     3  O    2.283811   1.317706   0.000000
     4  C    3.401624   2.192552   1.410738   0.000000
     5  C    3.386202   2.196652   2.212522   1.330502   0.000000
     6  O    2.268273   1.345088   2.187690   2.200907   1.388814
     7  H    4.342970   3.187480   2.127709   1.083553   2.239000
     8  H    4.334362   3.205607   3.284939   2.219430   1.082286
     9  Li   1.892717   2.513017   3.824778   4.531129   3.938750
                    6          7          8          9
     6  O    0.000000
     7  H    3.278418   0.000000
     8  H    2.127873   2.853815   0.000000
     9  Li   2.549936   5.596533   4.553473   0.000000
 Stoichiometry    C3H2LiO3(1+)
 Framework group  C1[X(C3H2LiO3)]
 Deg. of freedom    21
 Full point group                 C1      NOp   1
 RotChk:  IX=0 Diff= 7.54D-03
 Largest Abelian subgroup         C1      NOp   1
 Largest concise Abelian subgroup C1      NOp   1
                         Standard orientation:                         
 ---------------------------------------------------------------------
 Center     Atomic      Atomic             Coordinates (Angstroms)
 Number     Number       Type             X           Y           Z
 ---------------------------------------------------------------------
      1          8           0       -1.743512   -0.577316   -0.009818
      2          6           0       -0.540186   -0.288957   -0.003006
      3          8           0        0.471483   -1.133001    0.018575
      4          6           0        1.651167   -0.360158   -0.016645
      5          6           0        1.293067    0.921192   -0.004756
      6          8           0       -0.094485    0.980137    0.000733
      7          1           0        2.586984   -0.906064    0.001232
      8          1           0        1.847152    1.849955    0.036864
      9          3           0       -2.642104    1.088361    0.010809
 ---------------------------------------------------------------------
 Rotational constants (GHZ):      7.6095251      3.0191024      2.1617524
 Leave Link  202 at Mon May 16 17:25:08 2022, MaxMem=  2147483648 cpu:         0.4
 (Enter /gpfs/runtime/opt/gaussian/g09-D01/g09/l301.exe)
 Standard basis: 6-31+G(d,p) (6D, 7F)
 Ernie: Thresh=  0.10000D-02 Tol=  0.10000D-05 Strict=F.
 There are   143 symmetry adapted cartesian basis functions of A   symmetry.
 There are   143 symmetry adapted basis functions of A   symmetry.
   143 basis functions,   238 primitive gaussians,   143 cartesian basis functions
    23 alpha electrons       23 beta electrons
       nuclear repulsion energy       253.2413983125 Hartrees.
 IExCor= 4336 DFT=T Ex+Corr=M062X ExCW=0 ScaHFX=  0.540000
 ScaDFX=  1.000000  1.000000  1.000000  1.000000 ScalE2=  1.000000  1.000000
 IRadAn=      0 IRanWt=     -1 IRanGd=            0 ICorTp=0 IEmpDi=131
 NAtoms=    9 NActive=    9 NUniq=    9 SFac= 1.00D+00 NAtFMM=   60 NAOKFM=F Big=F
 Integral buffers will be    131072 words long.
 Raffenetti 2 integral format.
 Two-electron integral symmetry is turned on.
 R6Disp:  Grimme-D3 Dispersion energy=       -0.0000661548 Hartrees.
 Nuclear repulsion after empirical dispersion term =      253.2413321577 Hartrees.
 ------------------------------------------------------------------------------
 Polarizable Continuum Model (PCM)
 =================================
 Model                : PCM (using non-symmetric T matrix).
 Atomic radii         : SMD-Coulomb.
 Polarization charges : Total charges.
 Charge compensation  : None.
 Solution method      : On-the-fly selection.
 Cavity type          : VdW (van der Waals Surface) (Alpha=1.000).
 Cavity algorithm     : GePol (No added spheres)
                        Default sphere list used, NSphG=    9.
                        Lebedev-Laikov grids with approx.  5.0 points / Ang**2.
                        Smoothing algorithm: Karplus/York (Gamma=1.0000).
                        Polarization charges: spherical gaussians, with
                                              point-specific exponents (IZeta= 3).
                        Self-potential: point-specific (ISelfS= 7).
                        Self-field    : sphere-specific E.n sum rule (ISelfD= 2).
 1st derivatives      : Analytical E(r).r(x)/FMM algorithm (CHGder, D1EAlg=3).
                        Cavity 1st derivative terms included.
 Solvent              : DiMethylSulfoxide, Eps=  46.826000 Eps(inf)=   2.007889
 ------------------------------------------------------------------------------
 Spheres list:
 ISph  on   Nord     Re0    Alpha      Xe            Ye            Ze
    1   O      1    2.2940  1.000     -1.743512     -0.577316     -0.009818
    2   C      2    1.8500  1.000     -0.540186     -0.288957     -0.003006
    3   O      3    2.2940  1.000      0.471483     -1.133001      0.018575
    4   C      4    1.8500  1.000      1.651167     -0.360158     -0.016645
    5   C      5    1.8500  1.000      1.293067      0.921192     -0.004756
    6   O      6    2.2940  1.000     -0.094485      0.980137      0.000733
    7   H      7    1.2000  1.000      2.586984     -0.906064      0.001232
    8   H      8    1.2000  1.000      1.847152      1.849955      0.036864
    9  Li      9    1.8200  1.000     -2.642104      1.088361      0.010809
 ------------------------------------------------------------------------------
 GePol: Number of generator spheres                  =       9
 GePol: Total number of spheres                      =       9
 GePol: Number of exposed spheres                    =       9 (100.00%)
 GePol: Number of points                             =    1106
 GePol: Average weight of points                     =       0.13
 GePol: Minimum weight of points                     =   0.39D-08
 GePol: Maximum weight of points                     =    0.17992
 GePol: Number of points with low weight             =      35
 GePol: Fraction of low-weight points (<1% of avg)   =       3.16%
 GePol: Cavity surface area                          =    140.478 Ang**2
 GePol: Cavity volume                                =    134.686 Ang**3
 ------------------------------------------------------------------------------
 Atomic radii for non-electrostatic terms: SMD-CDS.
 ------------------------------------------------------------------------------
 PCM non-electrostatic energy =         0.0027614062 Hartrees.
 Nuclear repulsion after PCM non-electrostatic terms =      253.2440935639 Hartrees.
 Leave Link  301 at Mon May 16 17:25:08 2022, MaxMem=  2147483648 cpu:         0.4
 (Enter /gpfs/runtime/opt/gaussian/g09-D01/g09/l302.exe)
 NPDir=0 NMtPBC=     1 NCelOv=     1 NCel=       1 NClECP=     1 NCelD=      1
         NCelK=      1 NCelE2=     1 NClLst=     1 CellRange=     0.0.
 One-electron integrals computed using PRISM.
 NBasis=   143 RedAO= T EigKep=  7.24D-05  NBF=   143
 NBsUse=   143 1.00D-06 EigRej= -1.00D+00 NBFU=   143
 Precomputing XC quadrature grid using
 IXCGrd= 4 IRadAn=           0 IRanWt=          -1 IRanGd=           0 AccXCQ= 0.00D+00.
 Generated NRdTot=       0 NPtTot=           0 NUsed=           0 NTot=          32
 NSgBfM=   143   143   143   143   143 MxSgAt=     9 MxSgA2=     9.
 Leave Link  302 at Mon May 16 17:25:08 2022, MaxMem=  2147483648 cpu:         1.1
 (Enter /gpfs/runtime/opt/gaussian/g09-D01/g09/l303.exe)
 DipDrv:  MaxL=1.
 Leave Link  303 at Mon May 16 17:25:08 2022, MaxMem=  2147483648 cpu:         0.2
 (Enter /gpfs/runtime/opt/gaussian/g09-D01/g09/l401.exe)
 Initial guess from the checkpoint file:  "/gpfs/data/yqi27/cgu13/CHEM1560Q/Gaussian/872-36-6/inp5/Gau-242051.chk"
 B after Tr=     0.000000    0.000000    0.000000
         Rot=    1.000000   -0.000009    0.000001   -0.000060 Ang=  -0.01 deg.
 Guess basis will be translated and rotated to current coordinates.
 JPrj=2 DoOrth=T DoCkMO=T.
 Generating alternative initial guess.
 ExpMin= 7.40D-03 ExpMax= 5.48D+03 ExpMxC= 8.25D+02 IAcc=3 IRadAn=         5 AccDes= 0.00D+00
 Harris functional with IExCor= 1009 and IRadAn=       5 diagonalized for initial guess.
 HarFok:  IExCor= 1009 AccDes= 0.00D+00 IRadAn=         5 IDoV= 1 UseB2=F ITyADJ=14
 ICtDFT=  3500011 ScaDFX=  1.000000  1.000000  1.000000  1.000000
 FoFCou: FMM=F IPFlag=           0 FMFlag=      100000 FMFlg1=           0
         NFxFlg=           0 DoJE=T BraDBF=F KetDBF=T FulRan=T
         wScrn=  0.000000 ICntrl=     500 IOpCl=  0 I1Cent=   200000004 NGrid=           0
         NMat0=    1 NMatS0=      1 NMatT0=    0 NMatD0=    1 NMtDS0=    0 NMtDT0=    0
 Petite list used in FoFCou.
 Harris En= -348.236948293931    
 Leave Link  401 at Mon May 16 17:25:08 2022, MaxMem=  2147483648 cpu:         3.3
 (Enter /gpfs/runtime/opt/gaussian/g09-D01/g09/l502.exe)
 Closed shell SCF:
 Using DIIS extrapolation, IDIIS=  1040.
 Integral symmetry usage will be decided dynamically.
 Keep R1 ints in memory in canonical form, NReq=57432346.
 IVT=       82101 IEndB=       82101 NGot=  2147483648 MDV=  2094392592
 LenX=  2094392592 LenY=  2094371702
 Requested convergence on RMS density matrix=1.00D-08 within 128 cycles.
 Requested convergence on MAX density matrix=1.00D-06.
 Requested convergence on             energy=1.00D-06.
 No special actions if energy rises.
 FoFCou: FMM=F IPFlag=           0 FMFlag=           0 FMFlg1=           0
         NFxFlg=           0 DoJE=F BraDBF=F KetDBF=F FulRan=T
         wScrn=  0.000000 ICntrl=     600 IOpCl=  0 I1Cent=           0 NGrid=           0
         NMat0=    1 NMatS0=  10296 NMatT0=    0 NMatD0=    1 NMtDS0=    0 NMtDT0=    0
 Symmetry not used in FoFCou.

 Cycle   1  Pass 1  IDiag  1:
 Inv3:  Mode=1 IEnd=     3669708.
 Iteration    1 A*A^-1 deviation from unit magnitude is 6.77D-15 for    340.
 Iteration    1 A*A^-1 deviation from orthogonality  is 5.80D-15 for    349     16.
 Iteration    1 A^-1*A deviation from unit magnitude is 5.11D-15 for     30.
 Iteration    1 A^-1*A deviation from orthogonality  is 5.58D-13 for    405    362.
 E= -348.501331419856    
 DIIS: error= 6.97D-04 at cycle   1 NSaved=   1.
 NSaved= 1 IEnMin= 1 EnMin= -348.501331419856     IErMin= 1 ErrMin= 6.97D-04
 ErrMax= 6.97D-04  0.00D+00 EMaxC= 1.00D-01 BMatC= 7.84D-05 BMatP= 7.84D-05
 IDIUse=3 WtCom= 9.93D-01 WtEn= 6.97D-03
 Coeff-Com:  0.100D+01
 Coeff-En:   0.100D+01
 Coeff:      0.100D+01
 Gap=     0.565 Goal=   None    Shift=    0.000
 RMSDP=1.06D-04 MaxDP=2.71D-03              OVMax= 3.56D-03

 Cycle   2  Pass 1  IDiag  1:
 E= -348.501467485979     Delta-E=       -0.000136066123 Rises=F Damp=F
 DIIS: error= 1.01D-04 at cycle   2 NSaved=   2.
 NSaved= 2 IEnMin= 2 EnMin= -348.501467485979     IErMin= 2 ErrMin= 1.01D-04
 ErrMax= 1.01D-04  0.00D+00 EMaxC= 1.00D-01 BMatC= 3.61D-06 BMatP= 7.84D-05
 IDIUse=3 WtCom= 9.99D-01 WtEn= 1.01D-03
 Coeff-Com: -0.121D+00 0.112D+01
 Coeff-En:   0.000D+00 0.100D+01
 Coeff:     -0.121D+00 0.112D+01
 Gap=     0.321 Goal=   None    Shift=    0.000
 RMSDP=2.84D-05 MaxDP=5.69D-04 DE=-1.36D-04 OVMax= 1.26D-03

 Cycle   3  Pass 1  IDiag  1:
 E= -348.501473949007     Delta-E=       -0.000006463028 Rises=F Damp=F
 DIIS: error= 1.08D-04 at cycle   3 NSaved=   3.
 NSaved= 3 IEnMin= 3 EnMin= -348.501473949007     IErMin= 2 ErrMin= 1.01D-04
 ErrMax= 1.08D-04  0.00D+00 EMaxC= 1.00D-01 BMatC= 2.18D-06 BMatP= 3.61D-06
 IDIUse=3 WtCom= 9.99D-01 WtEn= 1.08D-03
 Coeff-Com: -0.874D-01 0.535D+00 0.552D+00
 Coeff-En:   0.000D+00 0.000D+00 0.100D+01
 Coeff:     -0.873D-01 0.534D+00 0.553D+00
 Gap=     0.321 Goal=   None    Shift=    0.000
 RMSDP=1.12D-05 MaxDP=3.04D-04 DE=-6.46D-06 OVMax= 3.91D-04

 Cycle   4  Pass 1  IDiag  1:
 E= -348.501475498764     Delta-E=       -0.000001549757 Rises=F Damp=F
 DIIS: error= 3.75D-05 at cycle   4 NSaved=   4.
 NSaved= 4 IEnMin= 4 EnMin= -348.501475498764     IErMin= 4 ErrMin= 3.75D-05
 ErrMax= 3.75D-05  0.00D+00 EMaxC= 1.00D-01 BMatC= 2.22D-07 BMatP= 2.18D-06
 IDIUse=1 WtCom= 1.00D+00 WtEn= 0.00D+00
 Coeff-Com: -0.105D-01-0.183D-02 0.237D+00 0.776D+00
 Coeff:     -0.105D-01-0.183D-02 0.237D+00 0.776D+00
 Gap=     0.321 Goal=   None    Shift=    0.000
 RMSDP=4.25D-06 MaxDP=9.47D-05 DE=-1.55D-06 OVMax= 1.74D-04

 Cycle   5  Pass 1  IDiag  1:
 E= -348.501475713920     Delta-E=       -0.000000215157 Rises=F Damp=F
 DIIS: error= 4.94D-06 at cycle   5 NSaved=   5.
 NSaved= 5 IEnMin= 5 EnMin= -348.501475713920     IErMin= 5 ErrMin= 4.94D-06
 ErrMax= 4.94D-06  0.00D+00 EMaxC= 1.00D-01 BMatC= 6.59D-09 BMatP= 2.22D-07
 IDIUse=1 WtCom= 1.00D+00 WtEn= 0.00D+00
 Coeff-Com:  0.419D-02-0.411D-01 0.826D-02 0.170D+00 0.859D+00
 Coeff:      0.419D-02-0.411D-01 0.826D-02 0.170D+00 0.859D+00
 Gap=     0.321 Goal=   None    Shift=    0.000
 RMSDP=1.15D-06 MaxDP=2.25D-05 DE=-2.15D-07 OVMax= 4.96D-05

 Cycle   6  Pass 1  IDiag  1:
 E= -348.501475722498     Delta-E=       -0.000000008578 Rises=F Damp=F
 DIIS: error= 2.54D-06 at cycle   6 NSaved=   6.
 NSaved= 6 IEnMin= 6 EnMin= -348.501475722498     IErMin= 6 ErrMin= 2.54D-06
 ErrMax= 2.54D-06  0.00D+00 EMaxC= 1.00D-01 BMatC= 1.52D-09 BMatP= 6.59D-09
 IDIUse=1 WtCom= 1.00D+00 WtEn= 0.00D+00
 Coeff-Com:  0.283D-02-0.205D-01-0.135D-01 0.318D-01 0.401D+00 0.599D+00
 Coeff:      0.283D-02-0.205D-01-0.135D-01 0.318D-01 0.401D+00 0.599D+00
 Gap=     0.321 Goal=   None    Shift=    0.000
 RMSDP=3.01D-07 MaxDP=6.18D-06 DE=-8.58D-09 OVMax= 1.19D-05

 Cycle   7  Pass 1  IDiag  1:
 E= -348.501475723827     Delta-E=       -0.000000001329 Rises=F Damp=F
 DIIS: error= 5.47D-07 at cycle   7 NSaved=   7.
 NSaved= 7 IEnMin= 7 EnMin= -348.501475723827     IErMin= 7 ErrMin= 5.47D-07
 ErrMax= 5.47D-07  0.00D+00 EMaxC= 1.00D-01 BMatC= 1.11D-10 BMatP= 1.52D-09
 IDIUse=1 WtCom= 1.00D+00 WtEn= 0.00D+00
 Coeff-Com:  0.193D-03 0.869D-04-0.507D-02-0.117D-01-0.230D-01 0.174D+00
 Coeff-Com:  0.865D+00
 Coeff:      0.193D-03 0.869D-04-0.507D-02-0.117D-01-0.230D-01 0.174D+00
 Coeff:      0.865D+00
 Gap=     0.321 Goal=   None    Shift=    0.000
 RMSDP=1.54D-07 MaxDP=2.46D-06 DE=-1.33D-09 OVMax= 7.51D-06

 Cycle   8  Pass 1  IDiag  1:
 E= -348.501475723966     Delta-E=       -0.000000000138 Rises=F Damp=F
 DIIS: error= 2.97D-07 at cycle   8 NSaved=   8.
 NSaved= 8 IEnMin= 8 EnMin= -348.501475723966     IErMin= 8 ErrMin= 2.97D-07
 ErrMax= 2.97D-07  0.00D+00 EMaxC= 1.00D-01 BMatC= 2.01D-11 BMatP= 1.11D-10
 IDIUse=1 WtCom= 1.00D+00 WtEn= 0.00D+00
 Coeff-Com: -0.175D-03 0.192D-02-0.899D-03-0.697D-02-0.482D-01 0.195D-01
 Coeff-Com:  0.385D+00 0.650D+00
 Coeff:     -0.175D-03 0.192D-02-0.899D-03-0.697D-02-0.482D-01 0.195D-01
 Coeff:      0.385D+00 0.650D+00
 Gap=     0.321 Goal=   None    Shift=    0.000
 RMSDP=4.39D-08 MaxDP=1.00D-06 DE=-1.38D-10 OVMax= 2.86D-06

 Cycle   9  Pass 1  IDiag  1:
 E= -348.501475723981     Delta-E=       -0.000000000015 Rises=F Damp=F
 DIIS: error= 7.74D-08 at cycle   9 NSaved=   9.
 NSaved= 9 IEnMin= 9 EnMin= -348.501475723981     IErMin= 9 ErrMin= 7.74D-08
 ErrMax= 7.74D-08  0.00D+00 EMaxC= 1.00D-01 BMatC= 2.25D-12 BMatP= 2.01D-11
 IDIUse=1 WtCom= 1.00D+00 WtEn= 0.00D+00
 Coeff-Com: -0.103D-03 0.831D-03 0.335D-03-0.122D-02-0.186D-01-0.188D-01
 Coeff-Com:  0.331D-01 0.275D+00 0.730D+00
 Coeff:     -0.103D-03 0.831D-03 0.335D-03-0.122D-02-0.186D-01-0.188D-01
 Coeff:      0.331D-01 0.275D+00 0.730D+00
 Gap=     0.321 Goal=   None    Shift=    0.000
 RMSDP=1.65D-08 MaxDP=2.95D-07 DE=-1.55D-11 OVMax= 8.55D-07

 Cycle  10  Pass 1  IDiag  1:
 E= -348.501475723987     Delta-E=       -0.000000000006 Rises=F Damp=F
 DIIS: error= 2.54D-08 at cycle  10 NSaved=  10.
 NSaved=10 IEnMin=10 EnMin= -348.501475723987     IErMin=10 ErrMin= 2.54D-08
 ErrMax= 2.54D-08  0.00D+00 EMaxC= 1.00D-01 BMatC= 1.47D-13 BMatP= 2.25D-12
 IDIUse=1 WtCom= 1.00D+00 WtEn= 0.00D+00
 Coeff-Com: -0.280D-04 0.188D-03 0.195D-03 0.102D-03-0.391D-02-0.928D-02
 Coeff-Com: -0.156D-01 0.638D-01 0.272D+00 0.692D+00
 Coeff:     -0.280D-04 0.188D-03 0.195D-03 0.102D-03-0.391D-02-0.928D-02
 Coeff:     -0.156D-01 0.638D-01 0.272D+00 0.692D+00
 Gap=     0.321 Goal=   None    Shift=    0.000
 RMSDP=4.80D-09 MaxDP=9.14D-08 DE=-5.91D-12 OVMax= 1.93D-07

 Error on total polarization charges =  0.00863
 SCF Done:  E(RM062X) =  -348.501475724     A.U. after   10 cycles
            NFock= 10  Conv=0.48D-08     -V/T= 2.0087
 KE= 3.455061298441D+02 PE=-1.313646157191D+03 EE= 3.663944580594D+02
 SMD-CDS (non-electrostatic) energy       (kcal/mol) =       1.73
 (included in total energy above)
 Leave Link  502 at Mon May 16 17:25:14 2022, MaxMem=  2147483648 cpu:        38.9
 (Enter /gpfs/runtime/opt/gaussian/g09-D01/g09/l701.exe)
 Compute integral first derivatives.
 ... and contract with generalized density number  0.
 R6Disp: Adding Grimme-D3 dispersion energy 1st derivatives to the gradient.
 D1PCM: PCM CHGder 1st derivatives, ID1Alg=3 FixD1E=F DoIter=F DoCFld=F I1PDM=0.
 GePol: Maximum number of non-zero 1st derivatives   =     279
 Leave Link  701 at Mon May 16 17:25:14 2022, MaxMem=  2147483648 cpu:         2.7
 (Enter /gpfs/runtime/opt/gaussian/g09-D01/g09/l702.exe)
 L702 exits ... SP integral derivatives will be done elsewhere.
 Leave Link  702 at Mon May 16 17:25:14 2022, MaxMem=  2147483648 cpu:         0.1
 (Enter /gpfs/runtime/opt/gaussian/g09-D01/g09/l703.exe)
 Compute integral first derivatives, UseDBF=F ICtDFT=           0.
 Integral derivatives from FoFJK, PRISM(SPDF).
 Calling FoFJK, ICntrl=      2127 FMM=F ISym2X=0 I1Cent= 0 IOpClX= 0 NMat=1 NMatS=1 NMatT=0.
 FoFJK:  IHMeth= 1 ICntrl=    2127 DoSepK=F KAlg= 0 I1Cent=   0 FoldK=F
 IRaf=         0 NMat=   1 IRICut=       1 DoRegI=T DoRafI=F ISym2E= 0.
 FoFCou: FMM=F IPFlag=           0 FMFlag=      100000 FMFlg1=         800
         NFxFlg=           0 DoJE=F BraDBF=F KetDBF=F FulRan=T
         wScrn=  0.000000 ICntrl=    2127 IOpCl=  0 I1Cent=           0 NGrid=           0
         NMat0=    1 NMatS0=      1 NMatT0=    0 NMatD0=    1 NMtDS0=    0 NMtDT0=    0
 Symmetry not used in FoFCou.
 Leave Link  703 at Mon May 16 17:25:16 2022, MaxMem=  2147483648 cpu:         9.2
 (Enter /gpfs/runtime/opt/gaussian/g09-D01/g09/l716.exe)
 Dipole        =-1.63774624D+00 2.55580092D+00 4.11359064D-02
 ***** Axes restored to original set *****
 -------------------------------------------------------------------
 Center     Atomic                   Forces (Hartrees/Bohr)
 Number     Number              X              Y              Z
 -------------------------------------------------------------------
      1        8           0.028147653    0.008623219    0.000024433
      2        6          -0.019942698   -0.010173940   -0.002722140
      3        8           0.007878325   -0.002245256    0.004922991
      4        6          -0.007180510    0.000004148   -0.004820770
      5        6           0.004351009    0.005638555   -0.000939020
      6        8          -0.005538461    0.005477029    0.000607816
      7        1          -0.000311188   -0.004344741    0.000764419
      8        1          -0.003005706    0.000302328    0.002101846
      9        3          -0.004398423   -0.003281341    0.000060424
 -------------------------------------------------------------------
 Cartesian Forces:  Max     0.028147653 RMS     0.007975175
 Leave Link  716 at Mon May 16 17:25:16 2022, MaxMem=  2147483648 cpu:         0.2
 (Enter /gpfs/runtime/opt/gaussian/g09-D01/g09/l103.exe)

 GradGradGradGradGradGradGradGradGradGradGradGradGradGradGradGradGradGrad
 Berny optimization.
 Using GEDIIS/GDIIS optimizer.
 Bend failed for angle     5 -     6 -     9
 Tors failed for dihedral     4 -     5 -     6 -     9
 Tors failed for dihedral     8 -     5 -     6 -     9
 FormBX had a problem.
 Error termination via Lnk1e in /gpfs/runtime/opt/gaussian/g09-D01/g09/l103.exe at Mon May 16 17:25:16 2022.
 Job cpu time:       0 days  0 hours 43 minutes  1.4 seconds.
 File lengths (MBytes):  RWF=    324 Int=      0 D2E=      0 Chk=      8 Scr=      8
