 Entering Gaussian System, Link 0=g09
 Initial command:
 /gpfs/runtime/opt/gaussian/g09-D01/g09/l1.exe "/gpfs/data/yqi27/cgu13/CHEM1560Q/Gaussian/872-36-6/inp0/Gau-213049.inp" -scrdir="/gpfs/data/yqi27/cgu13/CHEM1560Q/Gaussian/872-36-6/inp0/"
 Entering Link 1 = /gpfs/runtime/opt/gaussian/g09-D01/g09/l1.exe PID=    213050.
  
 Copyright (c) 1988,1990,1992,1993,1995,1998,2003,2009,2013,
            Gaussian, Inc.  All Rights Reserved.
  
 This is part of the Gaussian(R) 09 program.  It is based on
 the Gaussian(R) 03 system (copyright 2003, Gaussian, Inc.),
 the Gaussian(R) 98 system (copyright 1998, Gaussian, Inc.),
 the Gaussian(R) 94 system (copyright 1995, Gaussian, Inc.),
 the Gaussian 92(TM) system (copyright 1992, Gaussian, Inc.),
 the Gaussian 90(TM) system (copyright 1990, Gaussian, Inc.),
 the Gaussian 88(TM) system (copyright 1988, Gaussian, Inc.),
 the Gaussian 86(TM) system (copyright 1986, Carnegie Mellon
 University), and the Gaussian 82(TM) system (copyright 1983,
 Carnegie Mellon University). Gaussian is a federally registered
 trademark of Gaussian, Inc.
  
 This software contains proprietary and confidential information,
 including trade secrets, belonging to Gaussian, Inc.
  
 This software is provided under written license and may be
 used, copied, transmitted, or stored only in accord with that
 written license.
  
 The following legend is applicable only to US Government
 contracts under FAR:
  
                    RESTRICTED RIGHTS LEGEND
  
 Use, reproduction and disclosure by the US Government is
 subject to restrictions as set forth in subparagraphs (a)
 and (c) of the Commercial Computer Software - Restricted
 Rights clause in FAR 52.227-19.
  
 Gaussian, Inc.
 340 Quinnipiac St., Bldg. 40, Wallingford CT 06492
  
  
 ---------------------------------------------------------------
 Warning -- This program may not be used in any manner that
 competes with the business of Gaussian, Inc. or will provide
 assistance to any competitor of Gaussian, Inc.  The licensee
 of this program is prohibited from giving any competitor of
 Gaussian, Inc. access to this program.  By using this program,
 the user acknowledges that Gaussian, Inc. is engaged in the
 business of creating and licensing software in the field of
 computational chemistry and represents and warrants to the
 licensee that it is not a competitor of Gaussian, Inc. and that
 it will not use this program in any manner prohibited above.
 ---------------------------------------------------------------
  

 Cite this work as:
 Gaussian 09, Revision D.01,
 M. J. Frisch, G. W. Trucks, H. B. Schlegel, G. E. Scuseria, 
 M. A. Robb, J. R. Cheeseman, G. Scalmani, V. Barone, B. Mennucci, 
 G. A. Petersson, H. Nakatsuji, M. Caricato, X. Li, H. P. Hratchian, 
 A. F. Izmaylov, J. Bloino, G. Zheng, J. L. Sonnenberg, M. Hada, 
 M. Ehara, K. Toyota, R. Fukuda, J. Hasegawa, M. Ishida, T. Nakajima, 
 Y. Honda, O. Kitao, H. Nakai, T. Vreven, J. A. Montgomery, Jr., 
 J. E. Peralta, F. Ogliaro, M. Bearpark, J. J. Heyd, E. Brothers, 
 K. N. Kudin, V. N. Staroverov, T. Keith, R. Kobayashi, J. Normand, 
 K. Raghavachari, A. Rendell, J. C. Burant, S. S. Iyengar, J. Tomasi, 
 M. Cossi, N. Rega, J. M. Millam, M. Klene, J. E. Knox, J. B. Cross, 
 V. Bakken, C. Adamo, J. Jaramillo, R. Gomperts, R. E. Stratmann, 
 O. Yazyev, A. J. Austin, R. Cammi, C. Pomelli, J. W. Ochterski, 
 R. L. Martin, K. Morokuma, V. G. Zakrzewski, G. A. Voth, 
 P. Salvador, J. J. Dannenberg, S. Dapprich, A. D. Daniels, 
 O. Farkas, J. B. Foresman, J. V. Ortiz, J. Cioslowski, 
 and D. J. Fox, Gaussian, Inc., Wallingford CT, 2013.
 
 ******************************************
 Gaussian 09:  EM64L-G09RevD.01 24-Apr-2013
                16-May-2022 
 ******************************************
 %Mem=16GB
 %NProcShared=8
 Will use up to    8 processors via shared memory.
 ----------------------------------------------------------------------
 #P M062X/6-31+G** EmpiricalDispersion=GD3 SCRF(SMD,solvent=DiMethylSul
 foxide) Opt Freq
 ----------------------------------------------------------------------
 1/14=-1,18=20,19=15,26=3,38=1/1,3;
 2/9=110,12=2,17=6,18=5,40=1/2;
 3/5=1,6=6,7=111,11=2,16=1,25=1,30=1,70=32201,71=1,72=21,74=-55,124=31/1,2,3;
 4//1;
 5/5=2,38=5,53=21/2;
 6/7=2,8=2,9=2,10=2,28=1/1;
 7//1,2,3,16;
 1/14=-1,18=20,19=15,26=3/3(2);
 2/9=110/2;
 99//99;
 2/9=110/2;
 3/5=1,6=6,7=111,11=2,16=1,25=1,30=1,70=32205,71=1,72=21,74=-55,124=31/1,2,3;
 4/5=5,16=3,69=1/1;
 5/5=2,38=5,53=21/2;
 7//1,2,3,16;
 1/14=-1,18=20,19=15,26=3/3(-5);
 2/9=110/2;
 6/7=2,8=2,9=2,10=2,19=2,28=1/1;
 99/9=1/99;
 Leave Link    1 at Mon May 16 16:20:49 2022, MaxMem=  2147483648 cpu:         0.6
 (Enter /gpfs/runtime/opt/gaussian/g09-D01/g09/l101.exe)
 --------
 872-36-6
 --------
 Symbolic Z-matrix:
 Charge =  0 Multiplicity = 1
 O                    -1.9336    0.       -0.0008 
 C                    -0.7179    0.       -0.0011 
 O                     0.0735    1.0847    0.0009 
 C                     1.3613    0.6617    0.0002 
 C                     1.3613   -0.6617   -0.0022 
 O                     0.0735   -1.0847    0.0024 
 H                     2.2361    1.2951    0.0009 
 H                     2.2361   -1.2951   -0.0038 
 
 NAtoms=      8 NQM=        8 NQMF=       0 NMMI=      0 NMMIF=      0
                NMic=       0 NMicF=      0.
                    Isotopes and Nuclear Properties:
 (Nuclear quadrupole moments (NQMom) in fm**2, nuclear magnetic moments (NMagM)
  in nuclear magnetons)

  Atom         1           2           3           4           5           6           7           8
 IAtWgt=          16          12          16          12          12          16           1           1
 AtmWgt=  15.9949146  12.0000000  15.9949146  12.0000000  12.0000000  15.9949146   1.0078250   1.0078250
 NucSpn=           0           0           0           0           0           0           1           1
 AtZEff=   0.0000000   0.0000000   0.0000000   0.0000000   0.0000000   0.0000000   0.0000000   0.0000000
 NQMom=    0.0000000   0.0000000   0.0000000   0.0000000   0.0000000   0.0000000   0.0000000   0.0000000
 NMagM=    0.0000000   0.0000000   0.0000000   0.0000000   0.0000000   0.0000000   2.7928460   2.7928460
 AtZNuc=   8.0000000   6.0000000   8.0000000   6.0000000   6.0000000   8.0000000   1.0000000   1.0000000
 Leave Link  101 at Mon May 16 16:20:50 2022, MaxMem=  2147483648 cpu:         1.6
 (Enter /gpfs/runtime/opt/gaussian/g09-D01/g09/l103.exe)

 GradGradGradGradGradGradGradGradGradGradGradGradGradGradGradGradGradGrad
 Berny optimization.
 Initialization pass.
                           ----------------------------
                           !    Initial Parameters    !
                           ! (Angstroms and Degrees)  !
 --------------------------                            --------------------------
 ! Name  Definition              Value          Derivative Info.                !
 --------------------------------------------------------------------------------
 ! R1    R(1,2)                  1.2157         estimate D2E/DX2                !
 ! R2    R(2,3)                  1.3427         estimate D2E/DX2                !
 ! R3    R(2,6)                  1.3427         estimate D2E/DX2                !
 ! R4    R(3,4)                  1.3555         estimate D2E/DX2                !
 ! R5    R(4,5)                  1.3234         estimate D2E/DX2                !
 ! R6    R(4,7)                  1.08           estimate D2E/DX2                !
 ! R7    R(5,6)                  1.3555         estimate D2E/DX2                !
 ! R8    R(5,8)                  1.08           estimate D2E/DX2                !
 ! A1    A(1,2,3)              126.1145         estimate D2E/DX2                !
 ! A2    A(1,2,6)              126.1144         estimate D2E/DX2                !
 ! A3    A(3,2,6)              107.7705         estimate D2E/DX2                !
 ! A4    A(2,3,4)              107.9309         estimate D2E/DX2                !
 ! A5    A(3,4,5)              108.1837         estimate D2E/DX2                !
 ! A6    A(3,4,7)              125.9098         estimate D2E/DX2                !
 ! A7    A(5,4,7)              125.9065         estimate D2E/DX2                !
 ! A8    A(4,5,6)              108.1831         estimate D2E/DX2                !
 ! A9    A(4,5,8)              125.9065         estimate D2E/DX2                !
 ! A10   A(6,5,8)              125.91           estimate D2E/DX2                !
 ! A11   A(2,6,5)              107.9302         estimate D2E/DX2                !
 ! D1    D(1,2,3,4)            179.9789         estimate D2E/DX2                !
 ! D2    D(6,2,3,4)              0.2429         estimate D2E/DX2                !
 ! D3    D(1,2,6,5)            179.8738         estimate D2E/DX2                !
 ! D4    D(3,2,6,5)             -0.3902         estimate D2E/DX2                !
 ! D5    D(2,3,4,5)              0.0004         estimate D2E/DX2                !
 ! D6    D(2,3,4,7)            179.968          estimate D2E/DX2                !
 ! D7    D(3,4,5,6)             -0.2418         estimate D2E/DX2                !
 ! D8    D(3,4,5,8)            179.9675         estimate D2E/DX2                !
 ! D9    D(7,4,5,6)            179.7906         estimate D2E/DX2                !
 ! D10   D(7,4,5,8)             -0.0002         estimate D2E/DX2                !
 ! D11   D(4,5,6,2)              0.3931         estimate D2E/DX2                !
 ! D12   D(8,5,6,2)           -179.8161         estimate D2E/DX2                !
 --------------------------------------------------------------------------------
 Trust Radius=3.00D-01 FncErr=1.00D-07 GrdErr=1.00D-06
 Number of steps in this run=     41 maximum allowed number of steps=    100.
 GradGradGradGradGradGradGradGradGradGradGradGradGradGradGradGradGradGrad

 Leave Link  103 at Mon May 16 16:20:50 2022, MaxMem=  2147483648 cpu:         0.1
 (Enter /gpfs/runtime/opt/gaussian/g09-D01/g09/l202.exe)
                          Input orientation:                          
 ---------------------------------------------------------------------
 Center     Atomic      Atomic             Coordinates (Angstroms)
 Number     Number       Type             X           Y           Z
 ---------------------------------------------------------------------
      1          8           0       -1.933600    0.000000   -0.000800
      2          6           0       -0.717900    0.000000   -0.001100
      3          8           0        0.073500    1.084700    0.000900
      4          6           0        1.361300    0.661700    0.000200
      5          6           0        1.361300   -0.661700   -0.002200
      6          8           0        0.073500   -1.084700    0.002400
      7          1           0        2.236100    1.295100    0.000900
      8          1           0        2.236100   -1.295100   -0.003800
 ---------------------------------------------------------------------
                    Distance matrix (angstroms):
                    1          2          3          4          5
     1  O    0.000000
     2  C    1.215700   0.000000
     3  O    2.281453   1.342718   0.000000
     4  C    3.360687   2.181954   1.355492   0.000000
     5  C    3.360687   2.181953   2.169874   1.323402   0.000000
     6  O    2.281455   1.342721   2.169401   2.169872   1.355500
     7  H    4.366198   3.225431   2.172811   1.080033   2.143444
     8  H    4.366199   3.225431   3.215635   2.143445   1.080034
                    6          7          8
     6  O    0.000000
     7  H    3.215632   0.000000
     8  H    2.172820   2.590204   0.000000
 Stoichiometry    C3H2O3
 Framework group  C1[X(C3H2O3)]
 Deg. of freedom    18
 Full point group                 C1      NOp   1
 Largest Abelian subgroup         C1      NOp   1
 Largest concise Abelian subgroup C1      NOp   1
                         Standard orientation:                         
 ---------------------------------------------------------------------
 Center     Atomic      Atomic             Coordinates (Angstroms)
 Number     Number       Type             X           Y           Z
 ---------------------------------------------------------------------
      1          8           0        1.983773    0.000000    0.000766
      2          6           0        0.768073    0.000000    0.001066
      3          8           0       -0.023327    1.084700   -0.000934
      4          6           0       -1.311127    0.661700   -0.000234
      5          6           0       -1.311127   -0.661700    0.002166
      6          8           0       -0.023327   -1.084700   -0.002434
      7          1           0       -2.185927    1.295100   -0.000934
      8          1           0       -2.185927   -1.295100    0.003766
 ---------------------------------------------------------------------
 Rotational constants (GHZ):      9.8078995      4.1866038      2.9341439
 Leave Link  202 at Mon May 16 16:20:50 2022, MaxMem=  2147483648 cpu:         0.5
 (Enter /gpfs/runtime/opt/gaussian/g09-D01/g09/l301.exe)
 Standard basis: 6-31+G(d,p) (6D, 7F)
 Ernie: Thresh=  0.10000D-02 Tol=  0.10000D-05 Strict=F.
 There are   124 symmetry adapted cartesian basis functions of A   symmetry.
 There are   124 symmetry adapted basis functions of A   symmetry.
   124 basis functions,   206 primitive gaussians,   124 cartesian basis functions
    22 alpha electrons       22 beta electrons
       nuclear repulsion energy       231.3757277682 Hartrees.
 IExCor= 4336 DFT=T Ex+Corr=M062X ExCW=0 ScaHFX=  0.540000
 ScaDFX=  1.000000  1.000000  1.000000  1.000000 ScalE2=  1.000000  1.000000
 IRadAn=      0 IRanWt=     -1 IRanGd=            0 ICorTp=0 IEmpDi=131
 NAtoms=    8 NActive=    8 NUniq=    8 SFac= 1.00D+00 NAtFMM=   60 NAOKFM=F Big=F
 Integral buffers will be    131072 words long.
 Raffenetti 2 integral format.
 Two-electron integral symmetry is turned on.
 R6Disp:  Grimme-D3 Dispersion energy=       -0.0000482033 Hartrees.
 Nuclear repulsion after empirical dispersion term =      231.3756795648 Hartrees.
 ------------------------------------------------------------------------------
 Polarizable Continuum Model (PCM)
 =================================
 Model                : PCM (using non-symmetric T matrix).
 Atomic radii         : SMD-Coulomb.
 Polarization charges : Total charges.
 Charge compensation  : None.
 Solution method      : On-the-fly selection.
 Cavity type          : VdW (van der Waals Surface) (Alpha=1.000).
 Cavity algorithm     : GePol (No added spheres)
                        Default sphere list used, NSphG=    8.
                        Lebedev-Laikov grids with approx.  5.0 points / Ang**2.
                        Smoothing algorithm: Karplus/York (Gamma=1.0000).
                        Polarization charges: spherical gaussians, with
                                              point-specific exponents (IZeta= 3).
                        Self-potential: point-specific (ISelfS= 7).
                        Self-field    : sphere-specific E.n sum rule (ISelfD= 2).
 1st derivatives      : Analytical E(r).r(x)/FMM algorithm (CHGder, D1EAlg=3).
                        Cavity 1st derivative terms included.
 Solvent              : DiMethylSulfoxide, Eps=  46.826000 Eps(inf)=   2.007889
 ------------------------------------------------------------------------------
 Spheres list:
 ISph  on   Nord     Re0    Alpha      Xe            Ye            Ze
    1   O      1    2.2940  1.000      1.983773      0.000000      0.000766
    2   C      2    1.8500  1.000      0.768073      0.000000      0.001066
    3   O      3    2.2940  1.000     -0.023327      1.084700     -0.000934
    4   C      4    1.8500  1.000     -1.311127      0.661700     -0.000234
    5   C      5    1.8500  1.000     -1.311127     -0.661700      0.002166
    6   O      6    2.2940  1.000     -0.023327     -1.084700     -0.002434
    7   H      7    1.2000  1.000     -2.185927      1.295100     -0.000934
    8   H      8    1.2000  1.000     -2.185927     -1.295100      0.003766
 ------------------------------------------------------------------------------
 GePol: Number of generator spheres                  =       8
 GePol: Total number of spheres                      =       8
 GePol: Number of exposed spheres                    =       8 (100.00%)
 GePol: Number of points                             =    1009
 GePol: Average weight of points                     =       0.13
 GePol: Minimum weight of points                     =   0.61D-08
 GePol: Maximum weight of points                     =    0.17992
 GePol: Number of points with low weight             =      35
 GePol: Fraction of low-weight points (<1% of avg)   =       3.47%
 GePol: Cavity surface area                          =    129.187 Ang**2
 GePol: Cavity volume                                =    122.496 Ang**3
 ------------------------------------------------------------------------------
 Atomic radii for non-electrostatic terms: SMD-CDS.
 ------------------------------------------------------------------------------
 PCM non-electrostatic energy =        -0.0001206547 Hartrees.
 Nuclear repulsion after PCM non-electrostatic terms =      231.3755589101 Hartrees.
 Leave Link  301 at Mon May 16 16:20:51 2022, MaxMem=  2147483648 cpu:         0.6
 (Enter /gpfs/runtime/opt/gaussian/g09-D01/g09/l302.exe)
 NPDir=0 NMtPBC=     1 NCelOv=     1 NCel=       1 NClECP=     1 NCelD=      1
         NCelK=      1 NCelE2=     1 NClLst=     1 CellRange=     0.0.
 One-electron integrals computed using PRISM.
 NBasis=   124 RedAO= T EigKep=  8.07D-05  NBF=   124
 NBsUse=   124 1.00D-06 EigRej= -1.00D+00 NBFU=   124
 Precomputing XC quadrature grid using
 IXCGrd= 4 IRadAn=           0 IRanWt=          -1 IRanGd=           0 AccXCQ= 0.00D+00.
 Generated NRdTot=       0 NPtTot=           0 NUsed=           0 NTot=          32
 NSgBfM=   124   124   124   124   124 MxSgAt=     8 MxSgA2=     8.
 Leave Link  302 at Mon May 16 16:20:52 2022, MaxMem=  2147483648 cpu:         5.4
 (Enter /gpfs/runtime/opt/gaussian/g09-D01/g09/l303.exe)
 DipDrv:  MaxL=1.
 Leave Link  303 at Mon May 16 16:20:52 2022, MaxMem=  2147483648 cpu:         1.3
 (Enter /gpfs/runtime/opt/gaussian/g09-D01/g09/l401.exe)
 ExpMin= 4.38D-02 ExpMax= 5.48D+03 ExpMxC= 8.25D+02 IAcc=2 IRadAn=         4 AccDes= 0.00D+00
 Harris functional with IExCor= 1009 and IRadAn=       4 diagonalized for initial guess.
 HarFok:  IExCor= 1009 AccDes= 0.00D+00 IRadAn=         4 IDoV= 1 UseB2=F ITyADJ=14
 ICtDFT=  3500011 ScaDFX=  1.000000  1.000000  1.000000  1.000000
 FoFCou: FMM=F IPFlag=           0 FMFlag=      100000 FMFlg1=           0
         NFxFlg=           0 DoJE=T BraDBF=F KetDBF=T FulRan=T
         wScrn=  0.000000 ICntrl=     500 IOpCl=  0 I1Cent=   200000004 NGrid=           0
         NMat0=    1 NMatS0=      1 NMatT0=    0 NMatD0=    1 NMtDS0=    0 NMtDT0=    0
 Petite list used in FoFCou.
 Harris En= -340.867742223370    
 JPrj=0 DoOrth=F DoCkMO=F.
 Leave Link  401 at Mon May 16 16:20:54 2022, MaxMem=  2147483648 cpu:         5.4
 (Enter /gpfs/runtime/opt/gaussian/g09-D01/g09/l502.exe)
 Closed shell SCF:
 Using DIIS extrapolation, IDIIS=  1040.
 Integral symmetry usage will be decided dynamically.
 Keep R1 ints in memory in canonical form, NReq=34194868.
 IVT=       66590 IEndB=       66590 NGot=  2147483648 MDV=  2117381934
 LenX=  2117381934 LenY=  2117366117
 Requested convergence on RMS density matrix=1.00D-08 within 128 cycles.
 Requested convergence on MAX density matrix=1.00D-06.
 Requested convergence on             energy=1.00D-06.
 No special actions if energy rises.
 FoFCou: FMM=F IPFlag=           0 FMFlag=           0 FMFlg1=           0
         NFxFlg=           0 DoJE=F BraDBF=F KetDBF=F FulRan=T
         wScrn=  0.000000 ICntrl=     600 IOpCl=  0 I1Cent=           0 NGrid=           0
         NMat0=    1 NMatS0=   7750 NMatT0=    0 NMatD0=    1 NMtDS0=    0 NMtDT0=    0
 Symmetry not used in FoFCou.

 Cycle   1  Pass 1  IDiag  1:
 Inv3:  Mode=1 IEnd=     3054243.
 Iteration    1 A*A^-1 deviation from unit magnitude is 4.44D-15 for    303.
 Iteration    1 A*A^-1 deviation from orthogonality  is 3.01D-15 for    258     11.
 Iteration    1 A^-1*A deviation from unit magnitude is 5.11D-15 for    113.
 Iteration    1 A^-1*A deviation from orthogonality  is 1.89D-12 for    441    258.
 E= -340.944854926421    
 DIIS: error= 4.22D-02 at cycle   1 NSaved=   1.
 NSaved= 1 IEnMin= 1 EnMin= -340.944854926421     IErMin= 1 ErrMin= 4.22D-02
 ErrMax= 4.22D-02  0.00D+00 EMaxC= 1.00D-01 BMatC= 1.71D-01 BMatP= 1.71D-01
 IDIUse=3 WtCom= 5.78D-01 WtEn= 4.22D-01
 Coeff-Com:  0.100D+01
 Coeff-En:   0.100D+01
 Coeff:      0.100D+01
 Gap=     0.363 Goal=   None    Shift=    0.000
 GapD=    0.363 DampG=1.000 DampE=0.500 DampFc=0.5000 IDamp=-1.
 Damping current iteration by 5.00D-01
 RMSDP=6.41D-03 MaxDP=1.69D-01              OVMax= 2.01D-01

 Cycle   2  Pass 1  IDiag  1:
 E= -340.989820234165     Delta-E=       -0.044965307745 Rises=F Damp=T
 DIIS: error= 1.54D-02 at cycle   2 NSaved=   2.
 NSaved= 2 IEnMin= 2 EnMin= -340.989820234165     IErMin= 2 ErrMin= 1.54D-02
 ErrMax= 1.54D-02  0.00D+00 EMaxC= 1.00D-01 BMatC= 2.15D-02 BMatP= 1.71D-01
 IDIUse=3 WtCom= 8.46D-01 WtEn= 1.54D-01
 Coeff-Com:  0.768D-01 0.923D+00
 Coeff-En:   0.181D+00 0.819D+00
 Coeff:      0.928D-01 0.907D+00
 Gap=     0.315 Goal=   None    Shift=    0.000
 RMSDP=1.66D-03 MaxDP=2.95D-02 DE=-4.50D-02 OVMax= 1.43D-01

 Cycle   3  Pass 1  IDiag  1:
 E= -341.054027538960     Delta-E=       -0.064207304795 Rises=F Damp=F
 DIIS: error= 7.32D-03 at cycle   3 NSaved=   3.
 NSaved= 3 IEnMin= 3 EnMin= -341.054027538960     IErMin= 3 ErrMin= 7.32D-03
 ErrMax= 7.32D-03  0.00D+00 EMaxC= 1.00D-01 BMatC= 7.75D-03 BMatP= 2.15D-02
 IDIUse=3 WtCom= 9.27D-01 WtEn= 7.32D-02
 Coeff-Com: -0.679D-01 0.361D+00 0.707D+00
 Coeff-En:   0.000D+00 0.000D+00 0.100D+01
 Coeff:     -0.629D-01 0.334D+00 0.729D+00
 Gap=     0.328 Goal=   None    Shift=    0.000
 RMSDP=7.85D-04 MaxDP=2.18D-02 DE=-6.42D-02 OVMax= 3.15D-02

 Cycle   4  Pass 1  IDiag  1:
 E= -341.059068351622     Delta-E=       -0.005040812662 Rises=F Damp=F
 DIIS: error= 3.08D-03 at cycle   4 NSaved=   4.
 NSaved= 4 IEnMin= 4 EnMin= -341.059068351622     IErMin= 4 ErrMin= 3.08D-03
 ErrMax= 3.08D-03  0.00D+00 EMaxC= 1.00D-01 BMatC= 1.30D-03 BMatP= 7.75D-03
 IDIUse=3 WtCom= 9.69D-01 WtEn= 3.08D-02
 Coeff-Com: -0.313D-01 0.835D-01 0.351D+00 0.597D+00
 Coeff-En:   0.000D+00 0.000D+00 0.910D-01 0.909D+00
 Coeff:     -0.303D-01 0.809D-01 0.343D+00 0.607D+00
 Gap=     0.322 Goal=   None    Shift=    0.000
 RMSDP=2.45D-04 MaxDP=5.47D-03 DE=-5.04D-03 OVMax= 9.18D-03

 Cycle   5  Pass 1  IDiag  1:
 E= -341.060024029933     Delta-E=       -0.000955678311 Rises=F Damp=F
 DIIS: error= 6.01D-04 at cycle   5 NSaved=   5.
 NSaved= 5 IEnMin= 5 EnMin= -341.060024029933     IErMin= 5 ErrMin= 6.01D-04
 ErrMax= 6.01D-04  0.00D+00 EMaxC= 1.00D-01 BMatC= 4.13D-05 BMatP= 1.30D-03
 IDIUse=3 WtCom= 9.94D-01 WtEn= 6.01D-03
 Coeff-Com: -0.812D-02 0.143D-01 0.955D-01 0.236D+00 0.662D+00
 Coeff-En:   0.000D+00 0.000D+00 0.000D+00 0.000D+00 0.100D+01
 Coeff:     -0.807D-02 0.142D-01 0.950D-01 0.235D+00 0.664D+00
 Gap=     0.321 Goal=   None    Shift=    0.000
 RMSDP=4.61D-05 MaxDP=9.82D-04 DE=-9.56D-04 OVMax= 1.89D-03

 Cycle   6  Pass 1  IDiag  1:
 E= -341.060056688584     Delta-E=       -0.000032658651 Rises=F Damp=F
 DIIS: error= 1.21D-04 at cycle   6 NSaved=   6.
 NSaved= 6 IEnMin= 6 EnMin= -341.060056688584     IErMin= 6 ErrMin= 1.21D-04
 ErrMax= 1.21D-04  0.00D+00 EMaxC= 1.00D-01 BMatC= 2.83D-06 BMatP= 4.13D-05
 IDIUse=3 WtCom= 9.99D-01 WtEn= 1.21D-03
 Coeff-Com: -0.128D-02 0.443D-03 0.149D-01 0.455D-01 0.256D+00 0.685D+00
 Coeff-En:   0.000D+00 0.000D+00 0.000D+00 0.000D+00 0.000D+00 0.100D+01
 Coeff:     -0.127D-02 0.442D-03 0.149D-01 0.454D-01 0.255D+00 0.685D+00
 Gap=     0.321 Goal=   None    Shift=    0.000
 RMSDP=1.34D-05 MaxDP=2.36D-04 DE=-3.27D-05 OVMax= 4.99D-04

 Cycle   7  Pass 1  IDiag  1:
 E= -341.060059057993     Delta-E=       -0.000002369409 Rises=F Damp=F
 DIIS: error= 4.70D-05 at cycle   7 NSaved=   7.
 NSaved= 7 IEnMin= 7 EnMin= -341.060059057993     IErMin= 7 ErrMin= 4.70D-05
 ErrMax= 4.70D-05  0.00D+00 EMaxC= 1.00D-01 BMatC= 1.95D-07 BMatP= 2.83D-06
 IDIUse=1 WtCom= 1.00D+00 WtEn= 0.00D+00
 Coeff-Com:  0.811D-03-0.182D-02-0.820D-02-0.226D-01-0.126D-01 0.111D+00
 Coeff-Com:  0.933D+00
 Coeff:      0.811D-03-0.182D-02-0.820D-02-0.226D-01-0.126D-01 0.111D+00
 Coeff:      0.933D+00
 Gap=     0.321 Goal=   None    Shift=    0.000
 RMSDP=7.62D-06 MaxDP=1.56D-04 DE=-2.37D-06 OVMax= 2.34D-04

 Cycle   8  Pass 1  IDiag  1:
 E= -341.060059356537     Delta-E=       -0.000000298544 Rises=F Damp=F
 DIIS: error= 1.20D-05 at cycle   8 NSaved=   8.
 NSaved= 8 IEnMin= 8 EnMin= -341.060059356537     IErMin= 8 ErrMin= 1.20D-05
 ErrMax= 1.20D-05  0.00D+00 EMaxC= 1.00D-01 BMatC= 2.89D-08 BMatP= 1.95D-07
 IDIUse=1 WtCom= 1.00D+00 WtEn= 0.00D+00
 Coeff-Com:  0.388D-03-0.612D-03-0.339D-02-0.114D-01-0.242D-01-0.342D-01
 Coeff-Com:  0.291D+00 0.782D+00
 Coeff:      0.388D-03-0.612D-03-0.339D-02-0.114D-01-0.242D-01-0.342D-01
 Coeff:      0.291D+00 0.782D+00
 Gap=     0.321 Goal=   None    Shift=    0.000
 RMSDP=2.38D-06 MaxDP=4.42D-05 DE=-2.99D-07 OVMax= 1.16D-04

 Cycle   9  Pass 1  IDiag  1:
 E= -341.060059394541     Delta-E=       -0.000000038004 Rises=F Damp=F
 DIIS: error= 4.47D-06 at cycle   9 NSaved=   9.
 NSaved= 9 IEnMin= 9 EnMin= -341.060059394541     IErMin= 9 ErrMin= 4.47D-06
 ErrMax= 4.47D-06  0.00D+00 EMaxC= 1.00D-01 BMatC= 1.77D-09 BMatP= 2.89D-08
 IDIUse=1 WtCom= 1.00D+00 WtEn= 0.00D+00
 Coeff-Com: -0.611D-04 0.133D-03 0.990D-03 0.213D-02 0.210D-02-0.116D-01
 Coeff-Com: -0.105D+00-0.991D-02 0.112D+01
 Coeff:     -0.611D-04 0.133D-03 0.990D-03 0.213D-02 0.210D-02-0.116D-01
 Coeff:     -0.105D+00-0.991D-02 0.112D+01
 Gap=     0.321 Goal=   None    Shift=    0.000
 RMSDP=1.12D-06 MaxDP=2.39D-05 DE=-3.80D-08 OVMax= 4.51D-05

 Cycle  10  Pass 1  IDiag  1:
 E= -341.060059398186     Delta-E=       -0.000000003645 Rises=F Damp=F
 DIIS: error= 6.39D-07 at cycle  10 NSaved=  10.
 NSaved=10 IEnMin=10 EnMin= -341.060059398186     IErMin=10 ErrMin= 6.39D-07
 ErrMax= 6.39D-07  0.00D+00 EMaxC= 1.00D-01 BMatC= 3.07D-11 BMatP= 1.77D-09
 IDIUse=1 WtCom= 1.00D+00 WtEn= 0.00D+00
 Coeff-Com: -0.908D-05 0.140D-04 0.124D-03 0.337D-03 0.814D-03 0.139D-02
 Coeff-Com: -0.933D-02-0.283D-01-0.165D-01 0.105D+01
 Coeff:     -0.908D-05 0.140D-04 0.124D-03 0.337D-03 0.814D-03 0.139D-02
 Coeff:     -0.933D-02-0.283D-01-0.165D-01 0.105D+01
 Gap=     0.321 Goal=   None    Shift=    0.000
 RMSDP=1.36D-07 MaxDP=1.86D-06 DE=-3.64D-09 OVMax= 6.58D-06

 Cycle  11  Pass 1  IDiag  1:
 E= -341.060059398255     Delta-E=       -0.000000000069 Rises=F Damp=F
 DIIS: error= 1.20D-07 at cycle  11 NSaved=  11.
 NSaved=11 IEnMin=11 EnMin= -341.060059398255     IErMin=11 ErrMin= 1.20D-07
 ErrMax= 1.20D-07  0.00D+00 EMaxC= 1.00D-01 BMatC= 1.01D-12 BMatP= 3.07D-11
 IDIUse=1 WtCom= 1.00D+00 WtEn= 0.00D+00
 Coeff-Com:  0.294D-05-0.616D-05-0.314D-04-0.809D-04-0.692D-04 0.295D-03
 Coeff-Com:  0.348D-02 0.296D-02-0.353D-01-0.731D-01 0.110D+01
 Coeff:      0.294D-05-0.616D-05-0.314D-04-0.809D-04-0.692D-04 0.295D-03
 Coeff:      0.348D-02 0.296D-02-0.353D-01-0.731D-01 0.110D+01
 Gap=     0.321 Goal=   None    Shift=    0.000
 RMSDP=2.13D-08 MaxDP=4.07D-07 DE=-6.88D-11 OVMax= 5.71D-07

 Cycle  12  Pass 1  IDiag  1:
 E= -341.060059398258     Delta-E=       -0.000000000003 Rises=F Damp=F
 DIIS: error= 9.64D-09 at cycle  12 NSaved=  12.
 NSaved=12 IEnMin=12 EnMin= -341.060059398258     IErMin=12 ErrMin= 9.64D-09
 ErrMax= 9.64D-09  0.00D+00 EMaxC= 1.00D-01 BMatC= 1.21D-14 BMatP= 1.01D-12
 IDIUse=1 WtCom= 1.00D+00 WtEn= 0.00D+00
 Coeff-Com:  0.109D-06-0.160D-06-0.434D-06-0.219D-05-0.105D-04-0.494D-04
 Coeff-Com: -0.496D-05 0.552D-03 0.196D-02-0.219D-01-0.454D-02 0.102D+01
 Coeff:      0.109D-06-0.160D-06-0.434D-06-0.219D-05-0.105D-04-0.494D-04
 Coeff:     -0.496D-05 0.552D-03 0.196D-02-0.219D-01-0.454D-02 0.102D+01
 Gap=     0.321 Goal=   None    Shift=    0.000
 RMSDP=2.44D-09 MaxDP=4.59D-08 DE=-3.07D-12 OVMax= 4.66D-08

 Error on total polarization charges =  0.01066
 SCF Done:  E(RM062X) =  -341.060059398     A.U. after   12 cycles
            NFock= 12  Conv=0.24D-08     -V/T= 2.0078
 KE= 3.384281299121D+02 PE=-1.261397168994D+03 EE= 3.505334207740D+02
 SMD-CDS (non-electrostatic) energy       (kcal/mol) =      -0.08
 (included in total energy above)
 Leave Link  502 at Mon May 16 16:21:08 2022, MaxMem=  2147483648 cpu:        74.3
 (Enter /gpfs/runtime/opt/gaussian/g09-D01/g09/l601.exe)
 Copying SCF densities to generalized density rwf, IOpCl= 0 IROHF=0.

 **********************************************************************

            Population analysis using the SCF density.

 **********************************************************************

 Orbital symmetries:
       Occupied  (A) (A) (A) (A) (A) (A) (A) (A) (A) (A) (A) (A)
                 (A) (A) (A) (A) (A) (A) (A) (A) (A) (A)
       Virtual   (A) (A) (A) (A) (A) (A) (A) (A) (A) (A) (A) (A)
                 (A) (A) (A) (A) (A) (A) (A) (A) (A) (A) (A) (A)
                 (A) (A) (A) (A) (A) (A) (A) (A) (A) (A) (A) (A)
                 (A) (A) (A) (A) (A) (A) (A) (A) (A) (A) (A) (A)
                 (A) (A) (A) (A) (A) (A) (A) (A) (A) (A) (A) (A)
                 (A) (A) (A) (A) (A) (A) (A) (A) (A) (A) (A) (A)
                 (A) (A) (A) (A) (A) (A) (A) (A) (A) (A) (A) (A)
                 (A) (A) (A) (A) (A) (A) (A) (A) (A) (A) (A) (A)
                 (A) (A) (A) (A) (A) (A)
 The electronic state is 1-A.
 Alpha  occ. eigenvalues --  -19.74199 -19.74197 -19.65320 -10.75379 -10.62020
 Alpha  occ. eigenvalues --  -10.61900  -1.34475  -1.21755  -1.17770  -0.89325
 Alpha  occ. eigenvalues --   -0.77085  -0.74404  -0.64302  -0.62599  -0.56454
 Alpha  occ. eigenvalues --   -0.54411  -0.49792  -0.48938  -0.48484  -0.44918
 Alpha  occ. eigenvalues --   -0.39601  -0.30653
 Alpha virt. eigenvalues --    0.01457   0.03691   0.03878   0.04302   0.04849
 Alpha virt. eigenvalues --    0.06269   0.06814   0.07375   0.08770   0.09846
 Alpha virt. eigenvalues --    0.11194   0.12023   0.15103   0.16683   0.18790
 Alpha virt. eigenvalues --    0.22176   0.24589   0.24621   0.25779   0.26141
 Alpha virt. eigenvalues --    0.27632   0.27686   0.29255   0.29525   0.29917
 Alpha virt. eigenvalues --    0.31010   0.31472   0.36084   0.38167   0.38941
 Alpha virt. eigenvalues --    0.40908   0.48959   0.53101   0.54306   0.67548
 Alpha virt. eigenvalues --    0.71223   0.74332   0.74363   0.81156   0.89806
 Alpha virt. eigenvalues --    0.90989   0.92235   0.93876   0.99359   1.03022
 Alpha virt. eigenvalues --    1.17655   1.17822   1.20977   1.21663   1.25941
 Alpha virt. eigenvalues --    1.30639   1.31174   1.34719   1.35457   1.35698
 Alpha virt. eigenvalues --    1.35938   1.36336   1.41893   1.44409   1.48472
 Alpha virt. eigenvalues --    1.48633   1.58773   1.58793   1.67460   1.79181
 Alpha virt. eigenvalues --    1.82252   1.84212   1.89515   1.92263   1.96193
 Alpha virt. eigenvalues --    1.98561   2.04544   2.08412   2.12951   2.13896
 Alpha virt. eigenvalues --    2.23684   2.23854   2.33747   2.35204   2.44295
 Alpha virt. eigenvalues --    2.53223   2.57344   2.64644   2.70254   2.73168
 Alpha virt. eigenvalues --    2.75258   2.78656   2.81965   2.92820   2.99017
 Alpha virt. eigenvalues --    3.06289   3.10165   3.21984   3.26223   3.39904
 Alpha virt. eigenvalues --    3.72083   4.17343   4.27301   4.56032   4.63086
 Alpha virt. eigenvalues --    4.64607   4.68484
          Condensed to atoms (all electrons):
               1          2          3          4          5          6
     1  O    8.311634   0.449852  -0.107400   0.016358   0.016365  -0.107402
     2  C    0.449852   4.526034   0.219774  -0.114869  -0.114872   0.219779
     3  O   -0.107400   0.219774   8.365334   0.170591  -0.087072  -0.162034
     4  C    0.016358  -0.114869   0.170591   5.000077   0.655196  -0.087062
     5  C    0.016365  -0.114872  -0.087072   0.655196   5.000143   0.170567
     6  O   -0.107402   0.219779  -0.162034  -0.087062   0.170567   8.365338
     7  H    0.000009   0.012502  -0.031746   0.374558  -0.021565   0.002418
     8  H    0.000009   0.012502   0.002417  -0.021562   0.374557  -0.031746
               7          8
     1  O    0.000009   0.000009
     2  C    0.012502   0.012502
     3  O   -0.031746   0.002417
     4  C    0.374558  -0.021562
     5  C   -0.021565   0.374557
     6  O    0.002418  -0.031746
     7  H    0.405326   0.000270
     8  H    0.000270   0.405324
 Mulliken charges:
               1
     1  O   -0.579426
     2  C    0.789298
     3  O   -0.369865
     4  C    0.006712
     5  C    0.006682
     6  O   -0.369859
     7  H    0.258229
     8  H    0.258229
 Sum of Mulliken charges =   0.00000
 Mulliken charges with hydrogens summed into heavy atoms:
               1
     1  O   -0.579426
     2  C    0.789298
     3  O   -0.369865
     4  C    0.264941
     5  C    0.264911
     6  O   -0.369859
 Electronic spatial extent (au):  <R**2>=            405.1880
 Charge=              0.0000 electrons
 Dipole moment (field-independent basis, Debye):
    X=             -6.5534    Y=              0.0000    Z=              0.0058  Tot=              6.5534
 Quadrupole moment (field-independent basis, Debye-Ang):
   XX=            -33.3732   YY=            -33.1584   ZZ=            -33.4414
   XY=              0.0000   XZ=             -0.0068   YZ=             -0.0116
 Traceless Quadrupole moment (field-independent basis, Debye-Ang):
   XX=             -0.0488   YY=              0.1659   ZZ=             -0.1171
   XY=              0.0000   XZ=             -0.0068   YZ=             -0.0116
 Octapole moment (field-independent basis, Debye-Ang**2):
  XXX=            -33.2498  YYY=              0.0001  ZZZ=             -0.0185  XYY=             -7.6416
  XXY=              0.0000  XXZ=             -0.0030  XZZ=              3.7132  YZZ=              0.0000
  YYZ=              0.0026  XYZ=              0.0191
 Hexadecapole moment (field-independent basis, Debye-Ang**3):
 XXXX=           -321.7341 YYYY=           -145.6018 ZZZZ=            -32.0961 XXXY=             -0.0001
 XXXZ=             -0.0531 YYYX=              0.0000 YYYZ=             -0.0118 ZZZX=              0.0223
 ZZZY=              0.0064 XXYY=            -62.4792 XXZZ=            -64.2046 YYZZ=            -30.3059
 XXYZ=             -0.0371 YYXZ=             -0.0020 ZZXY=              0.0000
 N-N= 2.313755589101D+02 E-N=-1.261397169094D+03  KE= 3.384281299121D+02
 No NMR shielding tensors so no spin-rotation constants.
 Leave Link  601 at Mon May 16 16:21:09 2022, MaxMem=  2147483648 cpu:         3.6
 (Enter /gpfs/runtime/opt/gaussian/g09-D01/g09/l701.exe)
 Compute integral first derivatives.
 ... and contract with generalized density number  0.
 R6Disp: Adding Grimme-D3 dispersion energy 1st derivatives to the gradient.
 D1PCM: PCM CHGder 1st derivatives, ID1Alg=3 FixD1E=F DoIter=F DoCFld=F I1PDM=0.
 GePol: Maximum number of non-zero 1st derivatives   =     321
 Leave Link  701 at Mon May 16 16:21:11 2022, MaxMem=  2147483648 cpu:         6.7
 (Enter /gpfs/runtime/opt/gaussian/g09-D01/g09/l702.exe)
 L702 exits ... SP integral derivatives will be done elsewhere.
 Leave Link  702 at Mon May 16 16:21:11 2022, MaxMem=  2147483648 cpu:         0.1
 (Enter /gpfs/runtime/opt/gaussian/g09-D01/g09/l703.exe)
 Compute integral first derivatives, UseDBF=F ICtDFT=           0.
 Integral derivatives from FoFJK, PRISM(SPDF).
 Calling FoFJK, ICntrl=      2127 FMM=F ISym2X=0 I1Cent= 0 IOpClX= 0 NMat=1 NMatS=1 NMatT=0.
 FoFJK:  IHMeth= 1 ICntrl=    2127 DoSepK=F KAlg= 0 I1Cent=   0 FoldK=F
 IRaf=         0 NMat=   1 IRICut=       1 DoRegI=T DoRafI=F ISym2E= 0.
 FoFCou: FMM=F IPFlag=           0 FMFlag=      100000 FMFlg1=         800
         NFxFlg=           0 DoJE=F BraDBF=F KetDBF=F FulRan=T
         wScrn=  0.000000 ICntrl=    2127 IOpCl=  0 I1Cent=           0 NGrid=           0
         NMat0=    1 NMatS0=      1 NMatT0=    0 NMatD0=    1 NMtDS0=    0 NMtDT0=    0
 Symmetry not used in FoFCou.
 Leave Link  703 at Mon May 16 16:21:13 2022, MaxMem=  2147483648 cpu:         7.0
 (Enter /gpfs/runtime/opt/gaussian/g09-D01/g09/l716.exe)
 Dipole        =-2.57829393D+00 1.01327900D-05 2.26502343D-03
 ***** Axes restored to original set *****
 -------------------------------------------------------------------
 Center     Atomic                   Forces (Hartrees/Bohr)
 Number     Number              X              Y              Z
 -------------------------------------------------------------------
      1        8           0.026868256    0.000000260   -0.000198130
      2        6          -0.027755478   -0.000001953    0.000844373
      3        8          -0.015349257    0.020659067   -0.000123499
      4        6           0.024800869   -0.010767756   -0.000253384
      5        6           0.024798497    0.010765832    0.000433416
      6        8          -0.015347166   -0.020656043   -0.000678535
      7        1          -0.009007595    0.010638145   -0.000066787
      8        1          -0.009008126   -0.010637551    0.000042547
 -------------------------------------------------------------------
 Cartesian Forces:  Max     0.027755478 RMS     0.013947621
 Leave Link  716 at Mon May 16 16:21:13 2022, MaxMem=  2147483648 cpu:         0.2
 (Enter /gpfs/runtime/opt/gaussian/g09-D01/g09/l103.exe)

 GradGradGradGradGradGradGradGradGradGradGradGradGradGradGradGradGradGrad
 Berny optimization.
 FormGI is forming the generalized inverse of G from B-inverse, IUseBI=4.
 Internal  Forces:  Max     0.026868306 RMS     0.009071642
 Search for a local minimum.
 Step number   1 out of a maximum of   41
 All quantities printed in internal units (Hartrees-Bohrs-Radians)
 RMS Force = .90716D-02 SwitMx=.10000D-02 MixMth= 1
 Mixed Optimization -- RFO/linear search
 Second derivative matrix not updated -- first step.
 ITU=  0
     Eigenvalues ---    0.02373   0.02450   0.02655   0.02756   0.02902
     Eigenvalues ---    0.16000   0.16000   0.22586   0.24720   0.25000
     Eigenvalues ---    0.35990   0.35990   0.48652   0.49415   0.54299
     Eigenvalues ---    0.56009   0.59636   0.97314
 RFO step:  Lambda=-7.53089659D-03 EMin= 2.37313430D-02
 Linear search not attempted -- first point.
 Iteration  1 RMS(Cart)=  0.04349444 RMS(Int)=  0.00182251
 Iteration  2 RMS(Cart)=  0.00168439 RMS(Int)=  0.00012018
 Iteration  3 RMS(Cart)=  0.00000030 RMS(Int)=  0.00012018
 ITry= 1 IFail=0 DXMaxC= 1.42D-01 DCOld= 1.00D+10 DXMaxT= 3.00D-01 DXLimC= 3.00D+00 Rises=F
 Variable       Old X    -DE/DX   Delta X   Delta X   Delta X     New X
                                 (Linear)    (Quad)   (Total)
    R1        2.29734  -0.02687   0.00000  -0.02740  -0.02740   2.26994
    R2        2.53737   0.00736   0.00000   0.01187   0.01189   2.54925
    R3        2.53738   0.00735   0.00000   0.01186   0.01188   2.54925
    R4        2.56151   0.01871   0.00000   0.03464   0.03464   2.59615
    R5        2.50087   0.01175   0.00000   0.02010   0.02007   2.52094
    R6        2.04097  -0.00106   0.00000  -0.00288  -0.00288   2.03809
    R7        2.56152   0.01871   0.00000   0.03464   0.03463   2.59615
    R8        2.04097  -0.00106   0.00000  -0.00288  -0.00288   2.03809
    A1        2.20111  -0.00316   0.00000  -0.01041  -0.01046   2.19065
    A2        2.20111  -0.00316   0.00000  -0.01041  -0.01046   2.19065
    A3        1.88095   0.00633   0.00000   0.02089   0.02088   1.90183
    A4        1.88375  -0.00274   0.00000  -0.01221  -0.01220   1.87155
    A5        1.88816  -0.00043   0.00000   0.00179   0.00176   1.88992
    A6        2.19754  -0.01397   0.00000  -0.08556  -0.08554   2.11200
    A7        2.19748   0.01440   0.00000   0.08377   0.08379   2.28127
    A8        1.88815  -0.00043   0.00000   0.00180   0.00176   1.88991
    A9        2.19748   0.01440   0.00000   0.08378   0.08378   2.28127
   A10        2.19754  -0.01397   0.00000  -0.08555  -0.08554   2.11200
   A11        1.88374  -0.00273   0.00000  -0.01219  -0.01219   1.87155
    D1        3.14123   0.00026   0.00000   0.00795   0.00792  -3.13404
    D2        0.00424  -0.00022   0.00000  -0.00719  -0.00719  -0.00295
    D3        3.13939  -0.00012   0.00000  -0.00376  -0.00379   3.13560
    D4       -0.00681   0.00037   0.00000   0.01138   0.01132   0.00451
    D5        0.00001   0.00001   0.00000   0.00023   0.00018   0.00019
    D6        3.14103   0.00004   0.00000   0.00123   0.00103  -3.14112
    D7       -0.00422   0.00024   0.00000   0.00684   0.00680   0.00258
    D8        3.14102   0.00000   0.00000  -0.00032  -0.00058   3.14045
    D9        3.13794   0.00021   0.00000   0.00590   0.00592  -3.13933
   D10        0.00000  -0.00002   0.00000  -0.00126  -0.00146  -0.00146
   D11        0.00686  -0.00039   0.00000  -0.01139  -0.01124  -0.00438
   D12       -3.13838  -0.00008   0.00000  -0.00378  -0.00429   3.14051
         Item               Value     Threshold  Converged?
 Maximum Force            0.026868     0.000450     NO 
 RMS     Force            0.009072     0.000300     NO 
 Maximum Displacement     0.142312     0.001800     NO 
 RMS     Displacement     0.043149     0.001200     NO 
 Predicted change in Energy=-3.893491D-03
 Lowest energy point so far.  Saving SCF results.
 GradGradGradGradGradGradGradGradGradGradGradGradGradGradGradGradGradGrad

 Leave Link  103 at Mon May 16 16:21:16 2022, MaxMem=  2147483648 cpu:        15.4
 (Enter /gpfs/runtime/opt/gaussian/g09-D01/g09/l202.exe)
                          Input orientation:                          
 ---------------------------------------------------------------------
 Center     Atomic      Atomic             Coordinates (Angstroms)
 Number     Number       Type             X           Y           Z
 ---------------------------------------------------------------------
      1          8           0       -1.909137    0.000005   -0.002396
      2          6           0       -0.707948   -0.000005    0.003113
      3          8           0        0.075735    1.098021    0.001884
      4          6           0        1.380194    0.667011   -0.000155
      5          6           0        1.380196   -0.667013   -0.000391
      6          8           0        0.075734   -1.098021   -0.001874
      7          1           0        2.197761    1.370408   -0.001002
      8          1           0        2.197764   -1.370407   -0.002680
 ---------------------------------------------------------------------
                    Distance matrix (angstroms):
                    1          2          3          4          5
     1  O    0.000000
     2  C    1.201202   0.000000
     3  O    2.268342   1.349008   0.000000
     4  C    3.356277   2.192089   1.373822   0.000000
     5  C    3.356282   2.192090   2.194760   1.334025   0.000000
     6  O    2.268341   1.349008   2.196046   2.194757   1.373824
     7  H    4.329506   3.212662   2.139439   1.078510   2.195336
     8  H    4.329510   3.212661   3.255175   2.195336   1.078510
                    6          7          8
     6  O    0.000000
     7  H    3.255172   0.000000
     8  H    2.139441   2.740815   0.000000
 Stoichiometry    C3H2O3
 Framework group  C1[X(C3H2O3)]
 Deg. of freedom    18
 Full point group                 C1      NOp   1
 RotChk:  IX=2 Diff= 1.82D-03
 Largest Abelian subgroup         C1      NOp   1
 Largest concise Abelian subgroup C1      NOp   1
                         Standard orientation:                         
 ---------------------------------------------------------------------
 Center     Atomic      Atomic             Coordinates (Angstroms)
 Number     Number       Type             X           Y           Z
 ---------------------------------------------------------------------
      1          8           0        1.969338   -0.000001    0.001887
      2          6           0        0.768148   -0.000002   -0.003413
      3          8           0       -0.015533    1.098023   -0.000646
      4          6           0       -1.319992    0.667013    0.001068
      5          6           0       -1.319996   -0.667011   -0.000400
      6          8           0       -0.015534   -1.098023    0.000307
      7          1           0       -2.137558    1.370409    0.002956
      8          1           0       -2.137565   -1.370406    0.001133
 ---------------------------------------------------------------------
 Rotational constants (GHZ):      9.5296909      4.2135864      2.9217400
 Leave Link  202 at Mon May 16 16:21:16 2022, MaxMem=  2147483648 cpu:         0.3
 (Enter /gpfs/runtime/opt/gaussian/g09-D01/g09/l301.exe)
 Standard basis: 6-31+G(d,p) (6D, 7F)
 Ernie: Thresh=  0.10000D-02 Tol=  0.10000D-05 Strict=F.
 There are   124 symmetry adapted cartesian basis functions of A   symmetry.
 There are   124 symmetry adapted basis functions of A   symmetry.
   124 basis functions,   206 primitive gaussians,   124 cartesian basis functions
    22 alpha electrons       22 beta electrons
       nuclear repulsion energy       230.4729310329 Hartrees.
 IExCor= 4336 DFT=T Ex+Corr=M062X ExCW=0 ScaHFX=  0.540000
 ScaDFX=  1.000000  1.000000  1.000000  1.000000 ScalE2=  1.000000  1.000000
 IRadAn=      0 IRanWt=     -1 IRanGd=            0 ICorTp=0 IEmpDi=131
 NAtoms=    8 NActive=    8 NUniq=    8 SFac= 1.00D+00 NAtFMM=   60 NAOKFM=F Big=F
 Integral buffers will be    131072 words long.
 Raffenetti 2 integral format.
 Two-electron integral symmetry is turned on.
 R6Disp:  Grimme-D3 Dispersion energy=       -0.0000499235 Hartrees.
 Nuclear repulsion after empirical dispersion term =      230.4728811094 Hartrees.
 ------------------------------------------------------------------------------
 Polarizable Continuum Model (PCM)
 =================================
 Model                : PCM (using non-symmetric T matrix).
 Atomic radii         : SMD-Coulomb.
 Polarization charges : Total charges.
 Charge compensation  : None.
 Solution method      : On-the-fly selection.
 Cavity type          : VdW (van der Waals Surface) (Alpha=1.000).
 Cavity algorithm     : GePol (No added spheres)
                        Default sphere list used, NSphG=    8.
                        Lebedev-Laikov grids with approx.  5.0 points / Ang**2.
                        Smoothing algorithm: Karplus/York (Gamma=1.0000).
                        Polarization charges: spherical gaussians, with
                                              point-specific exponents (IZeta= 3).
                        Self-potential: point-specific (ISelfS= 7).
                        Self-field    : sphere-specific E.n sum rule (ISelfD= 2).
 1st derivatives      : Analytical E(r).r(x)/FMM algorithm (CHGder, D1EAlg=3).
                        Cavity 1st derivative terms included.
 Solvent              : DiMethylSulfoxide, Eps=  46.826000 Eps(inf)=   2.007889
 ------------------------------------------------------------------------------
 Spheres list:
 ISph  on   Nord     Re0    Alpha      Xe            Ye            Ze
    1   O      1    2.2940  1.000      1.969338     -0.000001      0.001887
    2   C      2    1.8500  1.000      0.768148     -0.000002     -0.003413
    3   O      3    2.2940  1.000     -0.015533      1.098023     -0.000646
    4   C      4    1.8500  1.000     -1.319992      0.667013      0.001068
    5   C      5    1.8500  1.000     -1.319996     -0.667011     -0.000400
    6   O      6    2.2940  1.000     -0.015534     -1.098023      0.000307
    7   H      7    1.2000  1.000     -2.137558      1.370409      0.002956
    8   H      8    1.2000  1.000     -2.137565     -1.370406      0.001133
 ------------------------------------------------------------------------------
 GePol: Number of generator spheres                  =       8
 GePol: Total number of spheres                      =       8
 GePol: Number of exposed spheres                    =       8 (100.00%)
 GePol: Number of points                             =    1007
 GePol: Average weight of points                     =       0.13
 GePol: Minimum weight of points                     =   0.12D-04
 GePol: Maximum weight of points                     =    0.17992
 GePol: Number of points with low weight             =      28
 GePol: Fraction of low-weight points (<1% of avg)   =       2.78%
 GePol: Cavity surface area                          =    129.385 Ang**2
 GePol: Cavity volume                                =    122.795 Ang**3
 ------------------------------------------------------------------------------
 Atomic radii for non-electrostatic terms: SMD-CDS.
 ------------------------------------------------------------------------------
 PCM non-electrostatic energy =        -0.0000457072 Hartrees.
 Nuclear repulsion after PCM non-electrostatic terms =      230.4728354022 Hartrees.
 Leave Link  301 at Mon May 16 16:21:17 2022, MaxMem=  2147483648 cpu:         0.4
 (Enter /gpfs/runtime/opt/gaussian/g09-D01/g09/l302.exe)
 NPDir=0 NMtPBC=     1 NCelOv=     1 NCel=       1 NClECP=     1 NCelD=      1
         NCelK=      1 NCelE2=     1 NClLst=     1 CellRange=     0.0.
 One-electron integrals computed using PRISM.
 NBasis=   124 RedAO= T EigKep=  8.55D-05  NBF=   124
 NBsUse=   124 1.00D-06 EigRej= -1.00D+00 NBFU=   124
 Precomputing XC quadrature grid using
 IXCGrd= 4 IRadAn=           0 IRanWt=          -1 IRanGd=           0 AccXCQ= 0.00D+00.
 Generated NRdTot=       0 NPtTot=           0 NUsed=           0 NTot=          32
 NSgBfM=   124   124   124   124   124 MxSgAt=     8 MxSgA2=     8.
 Leave Link  302 at Mon May 16 16:21:17 2022, MaxMem=  2147483648 cpu:         3.6
 (Enter /gpfs/runtime/opt/gaussian/g09-D01/g09/l303.exe)
 DipDrv:  MaxL=1.
 Leave Link  303 at Mon May 16 16:21:18 2022, MaxMem=  2147483648 cpu:         0.7
 (Enter /gpfs/runtime/opt/gaussian/g09-D01/g09/l401.exe)
 Initial guess from the checkpoint file:  "/gpfs/data/yqi27/cgu13/CHEM1560Q/Gaussian/872-36-6/inp0/Gau-213050.chk"
 B after Tr=     0.000000    0.000000    0.000000
         Rot=    1.000000   -0.000050    0.000031    0.000000 Ang=  -0.01 deg.
 Guess basis will be translated and rotated to current coordinates.
 JPrj=2 DoOrth=T DoCkMO=T.
 Generating alternative initial guess.
 ExpMin= 4.38D-02 ExpMax= 5.48D+03 ExpMxC= 8.25D+02 IAcc=2 IRadAn=         4 AccDes= 0.00D+00
 Harris functional with IExCor= 1009 and IRadAn=       4 diagonalized for initial guess.
 HarFok:  IExCor= 1009 AccDes= 0.00D+00 IRadAn=         4 IDoV= 1 UseB2=F ITyADJ=14
 ICtDFT=  3500011 ScaDFX=  1.000000  1.000000  1.000000  1.000000
 FoFCou: FMM=F IPFlag=           0 FMFlag=      100000 FMFlg1=           0
         NFxFlg=           0 DoJE=T BraDBF=F KetDBF=T FulRan=T
         wScrn=  0.000000 ICntrl=     500 IOpCl=  0 I1Cent=   200000004 NGrid=           0
         NMat0=    1 NMatS0=      1 NMatT0=    0 NMatD0=    1 NMtDS0=    0 NMtDT0=    0
 Petite list used in FoFCou.
 Harris En= -340.869703819677    
 Leave Link  401 at Mon May 16 16:21:20 2022, MaxMem=  2147483648 cpu:        10.3
 (Enter /gpfs/runtime/opt/gaussian/g09-D01/g09/l502.exe)
 Closed shell SCF:
 Using DIIS extrapolation, IDIIS=  1040.
 Integral symmetry usage will be decided dynamically.
 Keep R1 ints in memory in canonical form, NReq=34190542.
 IVT=       66590 IEndB=       66590 NGot=  2147483648 MDV=  2117381934
 LenX=  2117381934 LenY=  2117366117
 Requested convergence on RMS density matrix=1.00D-08 within 128 cycles.
 Requested convergence on MAX density matrix=1.00D-06.
 Requested convergence on             energy=1.00D-06.
 No special actions if energy rises.
 FoFCou: FMM=F IPFlag=           0 FMFlag=           0 FMFlg1=           0
         NFxFlg=           0 DoJE=F BraDBF=F KetDBF=F FulRan=T
         wScrn=  0.000000 ICntrl=     600 IOpCl=  0 I1Cent=           0 NGrid=           0
         NMat0=    1 NMatS0=   7750 NMatT0=    0 NMatD0=    1 NMtDS0=    0 NMtDT0=    0
 Symmetry not used in FoFCou.

 Cycle   1  Pass 1  IDiag  1:
 Inv3:  Mode=1 IEnd=     3042147.
 Iteration    1 A*A^-1 deviation from unit magnitude is 4.88D-15 for     55.
 Iteration    1 A*A^-1 deviation from orthogonality  is 3.84D-15 for    662     55.
 Iteration    1 A^-1*A deviation from unit magnitude is 5.11D-15 for    486.
 Iteration    1 A^-1*A deviation from orthogonality  is 4.67D-15 for    975    955.
 E= -341.063703346733    
 DIIS: error= 2.69D-03 at cycle   1 NSaved=   1.
 NSaved= 1 IEnMin= 1 EnMin= -341.063703346733     IErMin= 1 ErrMin= 2.69D-03
 ErrMax= 2.69D-03  0.00D+00 EMaxC= 1.00D-01 BMatC= 8.40D-04 BMatP= 8.40D-04
 IDIUse=3 WtCom= 9.73D-01 WtEn= 2.69D-02
 Coeff-Com:  0.100D+01
 Coeff-En:   0.100D+01
 Coeff:      0.100D+01
 Gap=     0.655 Goal=   None    Shift=    0.000
 GapD=    0.655 DampG=2.000 DampE=1.000 DampFc=2.0000 IDamp=-1.
 RMSDP=4.65D-04 MaxDP=6.06D-03              OVMax= 8.61D-03

 Cycle   2  Pass 1  IDiag  1:
 E= -341.064835908660     Delta-E=       -0.001132561927 Rises=F Damp=F
 DIIS: error= 5.36D-04 at cycle   2 NSaved=   2.
 NSaved= 2 IEnMin= 2 EnMin= -341.064835908660     IErMin= 2 ErrMin= 5.36D-04
 ErrMax= 5.36D-04  0.00D+00 EMaxC= 1.00D-01 BMatC= 5.24D-05 BMatP= 8.40D-04
 IDIUse=3 WtCom= 9.95D-01 WtEn= 5.36D-03
 Coeff-Com:  0.206D-01 0.979D+00
 Coeff-En:   0.000D+00 0.100D+01
 Coeff:      0.205D-01 0.980D+00
 Gap=     0.323 Goal=   None    Shift=    0.000
 RMSDP=1.10D-04 MaxDP=2.23D-03 DE=-1.13D-03 OVMax= 5.86D-03

 Cycle   3  Pass 1  IDiag  1:
 E= -341.064870939623     Delta-E=       -0.000035030964 Rises=F Damp=F
 DIIS: error= 6.16D-04 at cycle   3 NSaved=   3.
 NSaved= 3 IEnMin= 3 EnMin= -341.064870939623     IErMin= 2 ErrMin= 5.36D-04
 ErrMax= 6.16D-04  0.00D+00 EMaxC= 1.00D-01 BMatC= 4.68D-05 BMatP= 5.24D-05
 IDIUse=3 WtCom= 9.94D-01 WtEn= 6.16D-03
 Coeff-Com: -0.567D-01 0.500D+00 0.557D+00
 Coeff-En:   0.000D+00 0.178D+00 0.822D+00
 Coeff:     -0.564D-01 0.498D+00 0.559D+00
 Gap=     0.322 Goal=   None    Shift=    0.000
 RMSDP=5.55D-05 MaxDP=1.29D-03 DE=-3.50D-05 OVMax= 1.64D-03

 Cycle   4  Pass 1  IDiag  1:
 E= -341.064904907660     Delta-E=       -0.000033968036 Rises=F Damp=F
 DIIS: error= 1.63D-04 at cycle   4 NSaved=   4.
 NSaved= 4 IEnMin= 4 EnMin= -341.064904907660     IErMin= 4 ErrMin= 1.63D-04
 ErrMax= 1.63D-04  0.00D+00 EMaxC= 1.00D-01 BMatC= 3.24D-06 BMatP= 4.68D-05
 IDIUse=3 WtCom= 9.98D-01 WtEn= 1.63D-03
 Coeff-Com: -0.232D-01 0.964D-01 0.237D+00 0.690D+00
 Coeff-En:   0.000D+00 0.000D+00 0.000D+00 0.100D+01
 Coeff:     -0.232D-01 0.963D-01 0.237D+00 0.690D+00
 Gap=     0.322 Goal=   None    Shift=    0.000
 RMSDP=1.56D-05 MaxDP=5.27D-04 DE=-3.40D-05 OVMax= 7.53D-04

 Cycle   5  Pass 1  IDiag  1:
 E= -341.064907720955     Delta-E=       -0.000002813296 Rises=F Damp=F
 DIIS: error= 6.05D-05 at cycle   5 NSaved=   5.
 NSaved= 5 IEnMin= 5 EnMin= -341.064907720955     IErMin= 5 ErrMin= 6.05D-05
 ErrMax= 6.05D-05  0.00D+00 EMaxC= 1.00D-01 BMatC= 4.25D-07 BMatP= 3.24D-06
 IDIUse=1 WtCom= 1.00D+00 WtEn= 0.00D+00
 Coeff-Com: -0.244D-02-0.178D-01 0.221D-01 0.294D+00 0.704D+00
 Coeff:     -0.244D-02-0.178D-01 0.221D-01 0.294D+00 0.704D+00
 Gap=     0.322 Goal=   None    Shift=    0.000
 RMSDP=6.55D-06 MaxDP=1.27D-04 DE=-2.81D-06 OVMax= 2.93D-04

 Cycle   6  Pass 1  IDiag  1:
 E= -341.064908144532     Delta-E=       -0.000000423576 Rises=F Damp=F
 DIIS: error= 1.55D-05 at cycle   6 NSaved=   6.
 NSaved= 6 IEnMin= 6 EnMin= -341.064908144532     IErMin= 6 ErrMin= 1.55D-05
 ErrMax= 1.55D-05  0.00D+00 EMaxC= 1.00D-01 BMatC= 3.13D-08 BMatP= 4.25D-07
 IDIUse=1 WtCom= 1.00D+00 WtEn= 0.00D+00
 Coeff-Com:  0.245D-02-0.175D-01-0.357D-01-0.491D-02 0.158D+00 0.898D+00
 Coeff:      0.245D-02-0.175D-01-0.357D-01-0.491D-02 0.158D+00 0.898D+00
 Gap=     0.322 Goal=   None    Shift=    0.000
 RMSDP=2.58D-06 MaxDP=4.13D-05 DE=-4.24D-07 OVMax= 1.24D-04

 Cycle   7  Pass 1  IDiag  1:
 E= -341.064908188928     Delta-E=       -0.000000044396 Rises=F Damp=F
 DIIS: error= 5.76D-06 at cycle   7 NSaved=   7.
 NSaved= 7 IEnMin= 7 EnMin= -341.064908188928     IErMin= 7 ErrMin= 5.76D-06
 ErrMax= 5.76D-06  0.00D+00 EMaxC= 1.00D-01 BMatC= 4.77D-09 BMatP= 3.13D-08
 IDIUse=1 WtCom= 1.00D+00 WtEn= 0.00D+00
 Coeff-Com:  0.107D-02-0.479D-02-0.173D-01-0.193D-01 0.476D-02 0.339D+00
 Coeff-Com:  0.696D+00
 Coeff:      0.107D-02-0.479D-02-0.173D-01-0.193D-01 0.476D-02 0.339D+00
 Coeff:      0.696D+00
 Gap=     0.322 Goal=   None    Shift=    0.000
 RMSDP=8.09D-07 MaxDP=1.40D-05 DE=-4.44D-08 OVMax= 3.03D-05

 Cycle   8  Pass 1  IDiag  1:
 E= -341.064908193994     Delta-E=       -0.000000005066 Rises=F Damp=F
 DIIS: error= 1.91D-06 at cycle   8 NSaved=   8.
 NSaved= 8 IEnMin= 8 EnMin= -341.064908193994     IErMin= 8 ErrMin= 1.91D-06
 ErrMax= 1.91D-06  0.00D+00 EMaxC= 1.00D-01 BMatC= 6.09D-10 BMatP= 4.77D-09
 IDIUse=1 WtCom= 1.00D+00 WtEn= 0.00D+00
 Coeff-Com: -0.561D-04 0.159D-02-0.743D-03-0.425D-02-0.259D-01-0.451D-01
 Coeff-Com:  0.227D+00 0.847D+00
 Coeff:     -0.561D-04 0.159D-02-0.743D-03-0.425D-02-0.259D-01-0.451D-01
 Coeff:      0.227D+00 0.847D+00
 Gap=     0.322 Goal=   None    Shift=    0.000
 RMSDP=3.25D-07 MaxDP=6.35D-06 DE=-5.07D-09 OVMax= 1.56D-05

 Cycle   9  Pass 1  IDiag  1:
 E= -341.064908194676     Delta-E=       -0.000000000681 Rises=F Damp=F
 DIIS: error= 4.74D-07 at cycle   9 NSaved=   9.
 NSaved= 9 IEnMin= 9 EnMin= -341.064908194676     IErMin= 9 ErrMin= 4.74D-07
 ErrMax= 4.74D-07  0.00D+00 EMaxC= 1.00D-01 BMatC= 3.23D-11 BMatP= 6.09D-10
 IDIUse=1 WtCom= 1.00D+00 WtEn= 0.00D+00
 Coeff-Com: -0.104D-03 0.933D-03 0.112D-02 0.393D-03-0.901D-02-0.439D-01
 Coeff-Com:  0.141D-01 0.250D+00 0.787D+00
 Coeff:     -0.104D-03 0.933D-03 0.112D-02 0.393D-03-0.901D-02-0.439D-01
 Coeff:      0.141D-01 0.250D+00 0.787D+00
 Gap=     0.322 Goal=   None    Shift=    0.000
 RMSDP=9.28D-08 MaxDP=2.12D-06 DE=-6.81D-10 OVMax= 2.85D-06

 Cycle  10  Pass 1  IDiag  1:
 E= -341.064908194725     Delta-E=       -0.000000000050 Rises=F Damp=F
 DIIS: error= 8.37D-08 at cycle  10 NSaved=  10.
 NSaved=10 IEnMin=10 EnMin= -341.064908194725     IErMin=10 ErrMin= 8.37D-08
 ErrMax= 8.37D-08  0.00D+00 EMaxC= 1.00D-01 BMatC= 1.24D-12 BMatP= 3.23D-11
 IDIUse=1 WtCom= 1.00D+00 WtEn= 0.00D+00
 Coeff-Com: -0.373D-05-0.366D-04 0.129D-03 0.391D-03 0.111D-02 0.810D-03
 Coeff-Com: -0.166D-01-0.508D-01 0.858D-01 0.979D+00
 Coeff:     -0.373D-05-0.366D-04 0.129D-03 0.391D-03 0.111D-02 0.810D-03
 Coeff:     -0.166D-01-0.508D-01 0.858D-01 0.979D+00
 Gap=     0.322 Goal=   None    Shift=    0.000
 RMSDP=2.32D-08 MaxDP=4.45D-07 DE=-4.97D-11 OVMax= 6.93D-07

 Cycle  11  Pass 1  IDiag  1:
 E= -341.064908194725     Delta-E=        0.000000000001 Rises=F Damp=F
 DIIS: error= 1.41D-08 at cycle  11 NSaved=  11.
 NSaved=11 IEnMin=10 EnMin= -341.064908194725     IErMin=11 ErrMin= 1.41D-08
 ErrMax= 1.41D-08  0.00D+00 EMaxC= 1.00D-01 BMatC= 2.15D-14 BMatP= 1.24D-12
 IDIUse=1 WtCom= 1.00D+00 WtEn= 0.00D+00
 Coeff-Com:  0.370D-05-0.342D-04-0.464D-04 0.184D-05 0.286D-03 0.162D-02
 Coeff-Com: -0.636D-03-0.769D-02-0.246D-01-0.978D-02 0.104D+01
 Coeff:      0.370D-05-0.342D-04-0.464D-04 0.184D-05 0.286D-03 0.162D-02
 Coeff:     -0.636D-03-0.769D-02-0.246D-01-0.978D-02 0.104D+01
 Gap=     0.322 Goal=   None    Shift=    0.000
 RMSDP=4.18D-09 MaxDP=8.72D-08 DE= 5.68D-13 OVMax= 1.04D-07

 Error on total polarization charges =  0.01059
 SCF Done:  E(RM062X) =  -341.064908195     A.U. after   11 cycles
            NFock= 11  Conv=0.42D-08     -V/T= 2.0080
 KE= 3.383561788974D+02 PE=-1.259602780340D+03 EE= 3.497088578460D+02
 SMD-CDS (non-electrostatic) energy       (kcal/mol) =      -0.03
 (included in total energy above)
 Leave Link  502 at Mon May 16 16:21:26 2022, MaxMem=  2147483648 cpu:        36.6
 (Enter /gpfs/runtime/opt/gaussian/g09-D01/g09/l701.exe)
 Compute integral first derivatives.
 ... and contract with generalized density number  0.
 R6Disp: Adding Grimme-D3 dispersion energy 1st derivatives to the gradient.
 D1PCM: PCM CHGder 1st derivatives, ID1Alg=3 FixD1E=F DoIter=F DoCFld=F I1PDM=0.
 GePol: Maximum number of non-zero 1st derivatives   =     321
 Leave Link  701 at Mon May 16 16:21:28 2022, MaxMem=  2147483648 cpu:         9.0
 (Enter /gpfs/runtime/opt/gaussian/g09-D01/g09/l702.exe)
 L702 exits ... SP integral derivatives will be done elsewhere.
 Leave Link  702 at Mon May 16 16:21:28 2022, MaxMem=  2147483648 cpu:         0.1
 (Enter /gpfs/runtime/opt/gaussian/g09-D01/g09/l703.exe)
 Compute integral first derivatives, UseDBF=F ICtDFT=           0.
 Integral derivatives from FoFJK, PRISM(SPDF).
 Calling FoFJK, ICntrl=      2127 FMM=F ISym2X=0 I1Cent= 0 IOpClX= 0 NMat=1 NMatS=1 NMatT=0.
 FoFJK:  IHMeth= 1 ICntrl=    2127 DoSepK=F KAlg= 0 I1Cent=   0 FoldK=F
 IRaf=         0 NMat=   1 IRICut=       1 DoRegI=T DoRafI=F ISym2E= 0.
 FoFCou: FMM=F IPFlag=           0 FMFlag=      100000 FMFlg1=         800
         NFxFlg=           0 DoJE=F BraDBF=F KetDBF=F FulRan=T
         wScrn=  0.000000 ICntrl=    2127 IOpCl=  0 I1Cent=           0 NGrid=           0
         NMat0=    1 NMatS0=      1 NMatT0=    0 NMatD0=    1 NMtDS0=    0 NMtDT0=    0
 Symmetry not used in FoFCou.
 Leave Link  703 at Mon May 16 16:21:30 2022, MaxMem=  2147483648 cpu:         7.9
 (Enter /gpfs/runtime/opt/gaussian/g09-D01/g09/l716.exe)
 Dipole        =-2.52008282D+00 3.16795644D-06-3.61844824D-03
 ***** Axes restored to original set *****
 -------------------------------------------------------------------
 Center     Atomic                   Forces (Hartrees/Bohr)
 Number     Number              X              Y              Z
 -------------------------------------------------------------------
      1        8           0.003740654   -0.000000887    0.000609486
      2        6          -0.009512946    0.000002345   -0.001626046
      3        8          -0.003485075    0.003159042    0.000394417
      4        6           0.009921927   -0.012709328    0.000139420
      5        6           0.009920267    0.012709764   -0.000326726
      6        8          -0.003484481   -0.003160800    0.000707059
      7        1          -0.003550223    0.003918406    0.000065806
      8        1          -0.003550122   -0.003918542    0.000036584
 -------------------------------------------------------------------
 Cartesian Forces:  Max     0.012709764 RMS     0.005509034
 Leave Link  716 at Mon May 16 16:21:30 2022, MaxMem=  2147483648 cpu:         0.2
 (Enter /gpfs/runtime/opt/gaussian/g09-D01/g09/l103.exe)

 GradGradGradGradGradGradGradGradGradGradGradGradGradGradGradGradGradGrad
 Berny optimization.
 Using GEDIIS/GDIIS optimizer.
 FormGI is forming the generalized inverse of G from B-inverse, IUseBI=4.
 Internal  Forces:  Max     0.007121325 RMS     0.003039865
 Search for a local minimum.
 Step number   2 out of a maximum of   41
 All quantities printed in internal units (Hartrees-Bohrs-Radians)
 RMS Force = .30399D-02 SwitMx=.10000D-02 MixMth= 1
 Mixed Optimization -- RFO/linear search
 Update second derivatives using D2CorX and points    1    2
 DE= -4.85D-03 DEPred=-3.89D-03 R= 1.25D+00
 TightC=F SS=  1.41D+00  RLast= 1.84D-01 DXNew= 5.0454D-01 5.5294D-01
 Trust test= 1.25D+00 RLast= 1.84D-01 DXMaxT set to 5.05D-01
 ITU=  1  0
 Use linear search instead of GDIIS.
     Eigenvalues ---    0.02383   0.02455   0.02654   0.02804   0.02942
     Eigenvalues ---    0.10964   0.16000   0.22582   0.24999   0.26434
     Eigenvalues ---    0.35990   0.35993   0.48785   0.49253   0.50567
     Eigenvalues ---    0.56026   0.63473   0.98115
 RFO step:  Lambda=-9.00234031D-04 EMin= 2.38292168D-02
 Quartic linear search produced a step of  0.41537.
 Iteration  1 RMS(Cart)=  0.02652526 RMS(Int)=  0.00089900
 Iteration  2 RMS(Cart)=  0.00082467 RMS(Int)=  0.00017891
 Iteration  3 RMS(Cart)=  0.00000011 RMS(Int)=  0.00017891
 ITry= 1 IFail=0 DXMaxC= 8.12D-02 DCOld= 1.00D+10 DXMaxT= 5.05D-01 DXLimC= 3.00D+00 Rises=F
 Variable       Old X    -DE/DX   Delta X   Delta X   Delta X     New X
                                 (Linear)    (Quad)   (Total)
    R1        2.26994  -0.00374  -0.01138   0.00276  -0.00862   2.26132
    R2        2.54925   0.00147   0.00494   0.00049   0.00549   2.55474
    R3        2.54925   0.00147   0.00493   0.00049   0.00548   2.55474
    R4        2.59615   0.00712   0.01439   0.00809   0.02246   2.61861
    R5        2.52094  -0.00537   0.00834  -0.01891  -0.01064   2.51030
    R6        2.03809  -0.00014  -0.00120   0.00034  -0.00086   2.03723
    R7        2.59615   0.00712   0.01438   0.00809   0.02245   2.61860
    R8        2.03809  -0.00014  -0.00120   0.00034  -0.00086   2.03723
    A1        2.19065   0.00153  -0.00435   0.01120   0.00634   2.19699
    A2        2.19065   0.00153  -0.00435   0.01120   0.00634   2.19699
    A3        1.90183  -0.00306   0.00867  -0.02182  -0.01346   1.88837
    A4        1.87155   0.00178  -0.00507   0.01455   0.00958   1.88113
    A5        1.88992  -0.00025   0.00073  -0.00359  -0.00293   1.88699
    A6        2.11200  -0.00526  -0.03553  -0.01941  -0.05491   2.05709
    A7        2.28127   0.00551   0.03480   0.02300   0.05784   2.33911
    A8        1.88991  -0.00025   0.00073  -0.00357  -0.00294   1.88698
    A9        2.28127   0.00551   0.03480   0.02302   0.05784   2.33910
   A10        2.11200  -0.00526  -0.03553  -0.01940  -0.05492   2.05708
   A11        1.87155   0.00178  -0.00506   0.01457   0.00957   1.88112
    D1       -3.13404  -0.00059   0.00329  -0.03566  -0.03235   3.11680
    D2       -0.00295   0.00037  -0.00299   0.02322   0.02006   0.01711
    D3        3.13560   0.00051  -0.00158   0.03014   0.02857  -3.11902
    D4        0.00451  -0.00045   0.00470  -0.02874  -0.02384  -0.01933
    D5        0.00019  -0.00014   0.00008  -0.00847  -0.00842  -0.00823
    D6       -3.14112  -0.00009   0.00043  -0.00609  -0.00578   3.13628
    D7        0.00258  -0.00013   0.00283  -0.00915  -0.00626  -0.00368
    D8        3.14045   0.00010  -0.00024   0.00548   0.00550  -3.13724
    D9       -3.13933  -0.00020   0.00246  -0.01185  -0.00953   3.13433
   D10       -0.00146   0.00004  -0.00061   0.00278   0.00222   0.00076
   D11       -0.00438   0.00035  -0.00467   0.02325   0.01863   0.01425
   D12        3.14051   0.00011  -0.00178   0.01021   0.00880  -3.13387
         Item               Value     Threshold  Converged?
 Maximum Force            0.007121     0.000450     NO 
 RMS     Force            0.003040     0.000300     NO 
 Maximum Displacement     0.081173     0.001800     NO 
 RMS     Displacement     0.026359     0.001200     NO 
 Predicted change in Energy=-8.952856D-04
 Lowest energy point so far.  Saving SCF results.
 GradGradGradGradGradGradGradGradGradGradGradGradGradGradGradGradGradGrad

 Leave Link  103 at Mon May 16 16:21:32 2022, MaxMem=  2147483648 cpu:         8.5
 (Enter /gpfs/runtime/opt/gaussian/g09-D01/g09/l202.exe)
                          Input orientation:                          
 ---------------------------------------------------------------------
 Center     Atomic      Atomic             Coordinates (Angstroms)
 Number     Number       Type             X           Y           Z
 ---------------------------------------------------------------------
      1          8           0       -1.907413   -0.000002    0.008534
      2          6           0       -0.710955   -0.000005   -0.012414
      3          8           0        0.081698    1.095079    0.000152
      4          6           0        1.398711    0.664196   -0.000581
      5          6           0        1.398710   -0.664193   -0.002948
      6          8           0        0.081706   -1.095067    0.001091
      7          1           0        2.173922    1.413354    0.003557
      8          1           0        2.173920   -1.413361   -0.000889
 ---------------------------------------------------------------------
                    Distance matrix (angstroms):
                    1          2          3          4          5
     1  O    0.000000
     2  C    1.196641   0.000000
     3  O    2.270646   1.351912   0.000000
     4  C    3.372195   2.211785   1.385707   0.000000
     5  C    3.372200   2.211770   2.197629   1.328392   0.000000
     6  O    2.270642   1.351908   2.190147   2.197615   1.385702
     7  H    4.319131   3.212531   2.116297   1.078057   2.217476
     8  H    4.319138   3.212509   3.266446   2.217474   1.078057
                    6          7          8
     6  O    0.000000
     7  H    3.266428   0.000000
     8  H    2.116289   2.826718   0.000000
 Stoichiometry    C3H2O3
 Framework group  C1[X(C3H2O3)]
 Deg. of freedom    18
 Full point group                 C1      NOp   1
 RotChk:  IX=0 Diff= 2.80D-03
 Largest Abelian subgroup         C1      NOp   1
 Largest concise Abelian subgroup C1      NOp   1
                         Standard orientation:                         
 ---------------------------------------------------------------------
 Center     Atomic      Atomic             Coordinates (Angstroms)
 Number     Number       Type             X           Y           Z
 ---------------------------------------------------------------------
      1          8           0        1.973664   -0.000002   -0.005854
      2          6           0        0.777176   -0.000010    0.013266
      3          8           0       -0.015457    1.095078   -0.000223
      4          6           0       -1.332470    0.664195   -0.001616
      5          6           0       -1.332473   -0.664195    0.000401
      6          8           0       -0.015463   -1.095068   -0.001738
      7          1           0       -2.107673    1.413355   -0.006741
      8          1           0       -2.107679   -1.413361   -0.003040
 ---------------------------------------------------------------------
 Rotational constants (GHZ):      9.5392935      4.1791917      2.9061384
 Leave Link  202 at Mon May 16 16:21:32 2022, MaxMem=  2147483648 cpu:         0.3
 (Enter /gpfs/runtime/opt/gaussian/g09-D01/g09/l301.exe)
 Standard basis: 6-31+G(d,p) (6D, 7F)
 Ernie: Thresh=  0.10000D-02 Tol=  0.10000D-05 Strict=F.
 There are   124 symmetry adapted cartesian basis functions of A   symmetry.
 There are   124 symmetry adapted basis functions of A   symmetry.
   124 basis functions,   206 primitive gaussians,   124 cartesian basis functions
    22 alpha electrons       22 beta electrons
       nuclear repulsion energy       229.9779406594 Hartrees.
 IExCor= 4336 DFT=T Ex+Corr=M062X ExCW=0 ScaHFX=  0.540000
 ScaDFX=  1.000000  1.000000  1.000000  1.000000 ScalE2=  1.000000  1.000000
 IRadAn=      0 IRanWt=     -1 IRanGd=            0 ICorTp=0 IEmpDi=131
 NAtoms=    8 NActive=    8 NUniq=    8 SFac= 1.00D+00 NAtFMM=   60 NAOKFM=F Big=F
 Integral buffers will be    131072 words long.
 Raffenetti 2 integral format.
 Two-electron integral symmetry is turned on.
 R6Disp:  Grimme-D3 Dispersion energy=       -0.0000507738 Hartrees.
 Nuclear repulsion after empirical dispersion term =      229.9778898856 Hartrees.
 ------------------------------------------------------------------------------
 Polarizable Continuum Model (PCM)
 =================================
 Model                : PCM (using non-symmetric T matrix).
 Atomic radii         : SMD-Coulomb.
 Polarization charges : Total charges.
 Charge compensation  : None.
 Solution method      : On-the-fly selection.
 Cavity type          : VdW (van der Waals Surface) (Alpha=1.000).
 Cavity algorithm     : GePol (No added spheres)
                        Default sphere list used, NSphG=    8.
                        Lebedev-Laikov grids with approx.  5.0 points / Ang**2.
                        Smoothing algorithm: Karplus/York (Gamma=1.0000).
                        Polarization charges: spherical gaussians, with
                                              point-specific exponents (IZeta= 3).
                        Self-potential: point-specific (ISelfS= 7).
                        Self-field    : sphere-specific E.n sum rule (ISelfD= 2).
 1st derivatives      : Analytical E(r).r(x)/FMM algorithm (CHGder, D1EAlg=3).
                        Cavity 1st derivative terms included.
 Solvent              : DiMethylSulfoxide, Eps=  46.826000 Eps(inf)=   2.007889
 ------------------------------------------------------------------------------
 Spheres list:
 ISph  on   Nord     Re0    Alpha      Xe            Ye            Ze
    1   O      1    2.2940  1.000      1.973664     -0.000002     -0.005854
    2   C      2    1.8500  1.000      0.777176     -0.000010      0.013266
    3   O      3    2.2940  1.000     -0.015457      1.095078     -0.000223
    4   C      4    1.8500  1.000     -1.332470      0.664195     -0.001616
    5   C      5    1.8500  1.000     -1.332473     -0.664195      0.000401
    6   O      6    2.2940  1.000     -0.015463     -1.095068     -0.001738
    7   H      7    1.2000  1.000     -2.107673      1.413355     -0.006741
    8   H      8    1.2000  1.000     -2.107679     -1.413361     -0.003040
 ------------------------------------------------------------------------------
 GePol: Number of generator spheres                  =       8
 GePol: Total number of spheres                      =       8
 GePol: Number of exposed spheres                    =       8 (100.00%)
 GePol: Number of points                             =    1013
 GePol: Average weight of points                     =       0.13
 GePol: Minimum weight of points                     =   0.98D-06
 GePol: Maximum weight of points                     =    0.17992
 GePol: Number of points with low weight             =      40
 GePol: Fraction of low-weight points (<1% of avg)   =       3.95%
 GePol: Cavity surface area                          =    129.374 Ang**2
 GePol: Cavity volume                                =    122.856 Ang**3
 ------------------------------------------------------------------------------
 Atomic radii for non-electrostatic terms: SMD-CDS.
 ------------------------------------------------------------------------------
 PCM non-electrostatic energy =         0.0000359762 Hartrees.
 Nuclear repulsion after PCM non-electrostatic terms =      229.9779258619 Hartrees.
 Leave Link  301 at Mon May 16 16:21:32 2022, MaxMem=  2147483648 cpu:         0.4
 (Enter /gpfs/runtime/opt/gaussian/g09-D01/g09/l302.exe)
 NPDir=0 NMtPBC=     1 NCelOv=     1 NCel=       1 NClECP=     1 NCelD=      1
         NCelK=      1 NCelE2=     1 NClLst=     1 CellRange=     0.0.
 One-electron integrals computed using PRISM.
 NBasis=   124 RedAO= T EigKep=  8.49D-05  NBF=   124
 NBsUse=   124 1.00D-06 EigRej= -1.00D+00 NBFU=   124
 Precomputing XC quadrature grid using
 IXCGrd= 4 IRadAn=           0 IRanWt=          -1 IRanGd=           0 AccXCQ= 0.00D+00.
 Generated NRdTot=       0 NPtTot=           0 NUsed=           0 NTot=          32
 NSgBfM=   124   124   124   124   124 MxSgAt=     8 MxSgA2=     8.
 Leave Link  302 at Mon May 16 16:21:33 2022, MaxMem=  2147483648 cpu:         3.5
 (Enter /gpfs/runtime/opt/gaussian/g09-D01/g09/l303.exe)
 DipDrv:  MaxL=1.
 Leave Link  303 at Mon May 16 16:21:33 2022, MaxMem=  2147483648 cpu:         0.7
 (Enter /gpfs/runtime/opt/gaussian/g09-D01/g09/l401.exe)
 Initial guess from the checkpoint file:  "/gpfs/data/yqi27/cgu13/CHEM1560Q/Gaussian/872-36-6/inp0/Gau-213050.chk"
 B after Tr=     0.000000    0.000000    0.000000
         Rot=    1.000000   -0.000001   -0.000002    0.000000 Ang=   0.00 deg.
 Guess basis will be translated and rotated to current coordinates.
 JPrj=2 DoOrth=T DoCkMO=T.
 Generating alternative initial guess.
 ExpMin= 4.38D-02 ExpMax= 5.48D+03 ExpMxC= 8.25D+02 IAcc=2 IRadAn=         4 AccDes= 0.00D+00
 Harris functional with IExCor= 1009 and IRadAn=       4 diagonalized for initial guess.
 HarFok:  IExCor= 1009 AccDes= 0.00D+00 IRadAn=         4 IDoV= 1 UseB2=F ITyADJ=14
 ICtDFT=  3500011 ScaDFX=  1.000000  1.000000  1.000000  1.000000
 FoFCou: FMM=F IPFlag=           0 FMFlag=      100000 FMFlg1=           0
         NFxFlg=           0 DoJE=T BraDBF=F KetDBF=T FulRan=T
         wScrn=  0.000000 ICntrl=     500 IOpCl=  0 I1Cent=   200000004 NGrid=           0
         NMat0=    1 NMatS0=      1 NMatT0=    0 NMatD0=    1 NMtDS0=    0 NMtDT0=    0
 Petite list used in FoFCou.
 Harris En= -340.869269617829    
 Leave Link  401 at Mon May 16 16:21:36 2022, MaxMem=  2147483648 cpu:         9.8
 (Enter /gpfs/runtime/opt/gaussian/g09-D01/g09/l502.exe)
 Closed shell SCF:
 Using DIIS extrapolation, IDIIS=  1040.
 Integral symmetry usage will be decided dynamically.
 Keep R1 ints in memory in canonical form, NReq=34203648.
 IVT=       66590 IEndB=       66590 NGot=  2147483648 MDV=  2117381934
 LenX=  2117381934 LenY=  2117366117
 Requested convergence on RMS density matrix=1.00D-08 within 128 cycles.
 Requested convergence on MAX density matrix=1.00D-06.
 Requested convergence on             energy=1.00D-06.
 No special actions if energy rises.
 FoFCou: FMM=F IPFlag=           0 FMFlag=           0 FMFlg1=           0
         NFxFlg=           0 DoJE=F BraDBF=F KetDBF=F FulRan=T
         wScrn=  0.000000 ICntrl=     600 IOpCl=  0 I1Cent=           0 NGrid=           0
         NMat0=    1 NMatS0=   7750 NMatT0=    0 NMatD0=    1 NMtDS0=    0 NMtDT0=    0
 Symmetry not used in FoFCou.

 Cycle   1  Pass 1  IDiag  1:
 Inv3:  Mode=1 IEnd=     3078507.
 Iteration    1 A*A^-1 deviation from unit magnitude is 5.33D-15 for    771.
 Iteration    1 A*A^-1 deviation from orthogonality  is 5.96D-15 for    961    444.
 Iteration    1 A^-1*A deviation from unit magnitude is 5.11D-15 for     12.
 Iteration    1 A^-1*A deviation from orthogonality  is 6.40D-15 for    475    445.
 E= -341.064678415780    
 DIIS: error= 2.20D-03 at cycle   1 NSaved=   1.
 NSaved= 1 IEnMin= 1 EnMin= -341.064678415780     IErMin= 1 ErrMin= 2.20D-03
 ErrMax= 2.20D-03  0.00D+00 EMaxC= 1.00D-01 BMatC= 5.99D-04 BMatP= 5.99D-04
 IDIUse=3 WtCom= 9.78D-01 WtEn= 2.20D-02
 Coeff-Com:  0.100D+01
 Coeff-En:   0.100D+01
 Coeff:      0.100D+01
 Gap=     0.660 Goal=   None    Shift=    0.000
 GapD=    0.660 DampG=2.000 DampE=1.000 DampFc=2.0000 IDamp=-1.
 RMSDP=4.41D-04 MaxDP=7.42D-03              OVMax= 6.94D-03

 Cycle   2  Pass 1  IDiag  1:
 E= -341.065551260812     Delta-E=       -0.000872845032 Rises=F Damp=F
 DIIS: error= 5.08D-04 at cycle   2 NSaved=   2.
 NSaved= 2 IEnMin= 2 EnMin= -341.065551260812     IErMin= 2 ErrMin= 5.08D-04
 ErrMax= 5.08D-04  0.00D+00 EMaxC= 1.00D-01 BMatC= 4.33D-05 BMatP= 5.99D-04
 IDIUse=3 WtCom= 9.95D-01 WtEn= 5.08D-03
 Coeff-Com: -0.226D-01 0.102D+01
 Coeff-En:   0.000D+00 0.100D+01
 Coeff:     -0.224D-01 0.102D+01
 Gap=     0.325 Goal=   None    Shift=    0.000
 RMSDP=9.99D-05 MaxDP=1.89D-03 DE=-8.73D-04 OVMax= 3.29D-03

 Cycle   3  Pass 1  IDiag  1:
 E= -341.065564742725     Delta-E=       -0.000013481913 Rises=F Damp=F
 DIIS: error= 6.63D-04 at cycle   3 NSaved=   3.
 NSaved= 3 IEnMin= 3 EnMin= -341.065564742725     IErMin= 2 ErrMin= 5.08D-04
 ErrMax= 6.63D-04  0.00D+00 EMaxC= 1.00D-01 BMatC= 5.75D-05 BMatP= 4.33D-05
 IDIUse=3 WtCom= 2.80D-01 WtEn= 7.20D-01
 Coeff-Com: -0.887D-01 0.593D+00 0.495D+00
 Coeff-En:   0.000D+00 0.384D+00 0.616D+00
 Coeff:     -0.248D-01 0.443D+00 0.582D+00
 Gap=     0.325 Goal=   None    Shift=    0.000
 RMSDP=6.30D-05 MaxDP=1.72D-03 DE=-1.35D-05 OVMax= 2.20D-03

 Cycle   4  Pass 1  IDiag  1:
 E= -341.065598575803     Delta-E=       -0.000033833078 Rises=F Damp=F
 DIIS: error= 2.58D-04 at cycle   4 NSaved=   4.
 NSaved= 4 IEnMin= 4 EnMin= -341.065598575803     IErMin= 4 ErrMin= 2.58D-04
 ErrMax= 2.58D-04  0.00D+00 EMaxC= 1.00D-01 BMatC= 1.04D-05 BMatP= 4.33D-05
 IDIUse=3 WtCom= 9.97D-01 WtEn= 2.58D-03
 Coeff-Com: -0.187D-01 0.113D-01 0.310D+00 0.697D+00
 Coeff-En:   0.000D+00 0.000D+00 0.148D+00 0.852D+00
 Coeff:     -0.187D-01 0.112D-01 0.310D+00 0.698D+00
 Gap=     0.325 Goal=   None    Shift=    0.000
 RMSDP=2.10D-05 MaxDP=6.53D-04 DE=-3.38D-05 OVMax= 7.66D-04

 Cycle   5  Pass 1  IDiag  1:
[...]
     16  0.115791D-01  0.673103D-01 -0.396925D-02 -0.279757D-01 -0.562939D-01
     17 -0.792204D-02 -0.352379D-01  0.753847D-02  0.144901D-01  0.324494D-01
     18 -0.365703D-02 -0.320725D-01 -0.356922D-02  0.134855D-01  0.238445D-01
     19  0.103773D-01  0.199642D-02 -0.297803D-01  0.906086D-01  0.803557D-02
     20 -0.276972D-04  0.840070D-05 -0.141298D-04  0.241552D-04 -0.517982D-04
     21  0.131566D-04  0.222284D-05  0.370594D-04  0.232822D-04 -0.388224D-04
     22  0.302784D-04  0.252831D-04  0.593134D-05  0.994978D-05 -0.248917D-04
     23 -0.105755D-04  0.276749D-05 -0.165645D-04  0.204472D-04 -0.378676D-04
     24  0.000000D+00 -0.304850D-04 -0.325239D-05 -0.125373D-04 -0.509866D-04
     25 -0.323849D-05 -0.373990D-04 -0.633822D-05  0.892607D-05 -0.249920D-04
     26 -0.781846D-05 -0.272037D-04 -0.833576D-05  0.476129D-04  0.221662D-04
     27 -0.108298D-05 -0.208842D-04 -0.363001D-05  0.386544D-04  0.114940D-04
     28 -0.757884D-05 -0.133325D-04 -0.145270D-04  0.461487D-05  0.125205D-05
     29  0.000000D+00 -0.701308D-05 -0.982125D-05 -0.434363D-05 -0.942016D-05
     30  0.387229D-05 -0.218397D-05 -0.202209D-04  0.872342D-05 -0.256275D-04
     31 -0.362716D-05 -0.133088D-04 -0.208301D-04  0.184287D-04 -0.103618D-04
                6             7             8             9            10 
      6  0.384418D+00
      7 -0.272678D-02  0.325422D+00
      8  0.306974D-03  0.380979D-02  0.384418D+00
      9  0.543358D-03  0.198249D-01 -0.154299D-04  0.161394D+00
     10 -0.154315D-04 -0.461367D-02  0.543355D-03 -0.922895D-01  0.161394D+00
     11 -0.527927D-03 -0.152113D-01 -0.527925D-03 -0.691045D-01 -0.691044D-01
     12  0.192760D-02  0.906087D-01  0.115363D-03  0.389115D-01  0.425087D-01
     13 -0.405245D-02 -0.279756D-01  0.253741D-02 -0.108912D-01 -0.142449D-02
     14  0.284272D-02  0.134855D-01 -0.149068D-02  0.108938D-01  0.544568D-03
     15  0.120974D-02  0.144901D-01 -0.104673D-02 -0.258728D-05  0.879929D-03
     16  0.253741D-02 -0.121221D-01 -0.405246D-02 -0.142451D-02 -0.108912D-01
     17 -0.104673D-02 -0.146516D-01  0.120974D-02  0.879938D-03 -0.259199D-05
     18 -0.149068D-02  0.267737D-01  0.284271D-02  0.544569D-03  0.108938D-01
     19  0.115363D-03 -0.352996D-01  0.192761D-02  0.425087D-01  0.389114D-01
     20  0.000000D+00  0.102879D-04  0.147545D-05  0.445753D-04 -0.573026D-04
     21  0.000000D+00  0.712951D-05  0.104203D-05  0.552293D-05  0.178374D-04
     22  0.126497D-05  0.588583D-05 -0.141686D-05  0.485121D-04 -0.326181D-04
     23  0.000000D+00  0.000000D+00  0.000000D+00 -0.123420D-04 -0.785173D-05
     24 -0.141920D-05  0.546902D-05  0.000000D+00  0.157155D-04  0.309117D-05
     25  0.335432D-05  0.206358D-04 -0.145836D-05  0.116141D-04  0.137996D-04
     26  0.176930D-05  0.544590D-04  0.141161D-05  0.215648D-05  0.263858D-04
     27  0.254631D-05  0.105813D-04 -0.649296D-05  0.567252D-05  0.114981D-04
     28 -0.428616D-05  0.398689D-04  0.329629D-05  0.378157D-05  0.135830D-04
     29 -0.350915D-05 -0.400878D-05 -0.460828D-05  0.729761D-05 -0.130465D-05
     30  0.000000D+00 -0.117257D-04 -0.132224D-05  0.178283D-04  0.000000D+00
     31  0.000000D+00  0.140709D-04  0.500285D-05  0.151582D-04  0.995722D-05
               11            12            13            14            15 
     11  0.138209D+00
     12 -0.814202D-01  0.133810D+00
     13  0.123157D-01 -0.765110D-01  0.108607D+00
     14 -0.114384D-01  0.417569D-01 -0.603809D-01  0.880199D-01
     15 -0.877343D-03  0.347541D-01 -0.482264D-01 -0.276390D-01  0.758654D-01
     16  0.123157D-01  0.846275D-02 -0.528746D-01  0.272460D-01  0.256286D-01
     17 -0.877346D-03 -0.112790D-01  0.256286D-01 -0.127640D-01 -0.128646D-01
     18 -0.114383D-01  0.281625D-02  0.272460D-01 -0.144820D-01 -0.127640D-01
     19 -0.814202D-01  0.156580D-01  0.846272D-02  0.281626D-02 -0.112790D-01
     20 -0.957262D-05 -0.106336D-04  0.827241D-05 -0.263531D-05 -0.629273D-05
     21 -0.713503D-05 -0.132444D-04  0.346359D-04 -0.224825D-04 -0.769593D-05
     22  0.640603D-05 -0.171457D-04  0.198560D-04 -0.103733D-04 -0.595771D-05
     23  0.396842D-05 -0.131183D-04 -0.277922D-05  0.539813D-05 -0.420695D-05
     24 -0.287804D-04  0.815427D-05  0.120651D-04  0.000000D+00 -0.178460D-04
     25 -0.306502D-04  0.237324D-04  0.000000D+00 -0.236173D-04  0.235408D-04
     26 -0.285423D-04  0.487507D-04 -0.231578D-04  0.114630D-04  0.164501D-04
     27 -0.113614D-04  0.159262D-04 -0.848653D-05  0.112865D-04  0.214273D-05
     28 -0.231739D-04  0.363226D-04 -0.180859D-04 -0.270749D-05  0.173773D-04
     29 -0.599296D-05  0.349814D-05 -0.341467D-05 -0.288396D-05  0.306991D-05
     30 -0.770962D-05  0.656823D-05 -0.193345D-04  0.131485D-04  0.415840D-05
     31 -0.198788D-04  0.289772D-04 -0.276880D-04  0.116651D-04  0.138425D-04
               16            17            18            19            20 
     16  0.108607D+00
     17 -0.482264D-01  0.758654D-01
     18 -0.603808D-01 -0.276391D-01  0.880199D-01
     19 -0.765110D-01  0.347541D-01  0.417569D-01  0.133810D+00
     20  0.305816D-05  0.291138D-05 -0.338179D-05  0.912292D-05  0.302391D-01
     21 -0.118622D-04  0.248979D-05  0.820664D-05  0.688998D-05 -0.127256D-01
     22  0.462795D-05 -0.100415D-05 -0.410510D-05 -0.531708D-05 -0.273939D-01
     23  0.158202D-04  0.000000D+00 -0.116178D-04 -0.450080D-05  0.155708D-01
     24 -0.255247D-04  0.781038D-05  0.162258D-04  0.192978D-04  0.484401D-02
     25 -0.295153D-04  0.148192D-04  0.130954D-04  0.300169D-04  0.367370D-02
     26 -0.192200D-04  0.112655D-04  0.114454D-04  0.365453D-04  0.471522D-02
     27 -0.144377D-04  0.179921D-04 -0.606215D-05  0.250731D-04 -0.300109D-02
     28 -0.829544D-05  0.000000D+00  0.125657D-04  0.161207D-04  0.615039D-02
     29 -0.351319D-05  0.608476D-05 -0.494183D-05  0.464847D-05 -0.156591D-02
     30  0.114956D-04 -0.123550D-04 -0.335719D-05  0.000000D+00 -0.125499D-01
     31  0.250620D-05  0.130976D-04 -0.149287D-04  0.136256D-04 -0.625763D-02
               21            22            23            24            25 
     21  0.185351D-01
     22  0.155708D-01  0.302391D-01
     23 -0.156900D-01 -0.127256D-01  0.185351D-01
     24 -0.143721D-01 -0.125499D-01  0.666620D-02  0.169014D-01
     25 -0.641542D-02 -0.625764D-02  0.383148D-02  0.664858D-02  0.829013D-02
     26  0.471522D-02  0.471521D-02  0.471522D-02 -0.127707D-01 -0.428225D-02
     27  0.819149D-02  0.615040D-02 -0.504218D-02 -0.833217D-02  0.490747D-03
     28 -0.504218D-02 -0.300110D-02  0.819148D-02 -0.197384D-03 -0.629529D-02
     29 -0.156591D-02 -0.156591D-02 -0.156591D-02  0.424111D-02 -0.152229D-02
     30  0.666620D-02  0.484402D-02 -0.143721D-01  0.396912D-02  0.349751D-03
     31  0.383148D-02  0.367370D-02 -0.641543D-02  0.349753D-03 -0.354238D-02
               26            27            28            29            30 
     26  0.156288D-01
     27  0.521925D-02  0.126972D-01
     28  0.521925D-02 -0.560047D-02  0.126972D-01
     29 -0.519026D-02  0.187753D-02  0.187752D-02  0.894531D-02
     30 -0.127707D-01 -0.197388D-03 -0.833217D-02  0.424111D-02  0.169014D-01
     31 -0.428225D-02 -0.629531D-02  0.490749D-03 -0.152231D-02  0.664857D-02
               31 
     31  0.829013D-02
 Leave Link  716 at Mon May 16 16:23:27 2022, MaxMem=  2147483648 cpu:         2.3
 (Enter /gpfs/runtime/opt/gaussian/g09-D01/g09/l103.exe)

 GradGradGradGradGradGradGradGradGradGradGradGradGradGradGradGradGradGrad
 Berny optimization.
 Red2BG is reusing G-inverse.
 Internal  Forces:  Max     0.000094556 RMS     0.000037512
 Search for a local minimum.
 Step number   1 out of a maximum of    2
 All quantities printed in internal units (Hartrees-Bohrs-Radians)
 Second derivative matrix not updated -- analytic derivatives used.
 ITU=  0
     Eigenvalues ---    0.01308   0.01827   0.02428   0.04990   0.09237
     Eigenvalues ---    0.09995   0.10438   0.19099   0.24755   0.28059
     Eigenvalues ---    0.33685   0.36120   0.38488   0.38524   0.43062
     Eigenvalues ---    0.44762   0.61559   0.94210
 Angle between quadratic step and forces=  41.67 degrees.
 Linear search not attempted -- first point.
 Iteration  1 RMS(Cart)=  0.00027936 RMS(Int)=  0.00000012
 Iteration  2 RMS(Cart)=  0.00000008 RMS(Int)=  0.00000008
 ITry= 1 IFail=0 DXMaxC= 6.82D-04 DCOld= 1.00D+10 DXMaxT= 3.00D-01 DXLimC= 3.00D+00 Rises=F
 Variable       Old X    -DE/DX   Delta X   Delta X   Delta X     New X
                                 (Linear)    (Quad)   (Total)
    R1        2.26505   0.00002   0.00000   0.00009   0.00009   2.26514
    R2        2.55225  -0.00009   0.00000  -0.00027  -0.00027   2.55198
    R3        2.55225  -0.00009   0.00000  -0.00027  -0.00027   2.55198
    R4        2.61743   0.00006   0.00000   0.00023   0.00023   2.61766
    R5        2.50946  -0.00003   0.00000  -0.00005  -0.00005   2.50941
    R6        2.03783  -0.00001   0.00000  -0.00003  -0.00003   2.03780
    R7        2.61743   0.00006   0.00000   0.00023   0.00023   2.61766
    R8        2.03783  -0.00001   0.00000  -0.00003  -0.00003   2.03780
    A1        2.19442  -0.00002   0.00000  -0.00007  -0.00007   2.19435
    A2        2.19442  -0.00002   0.00000  -0.00007  -0.00007   2.19435
    A3        1.89434   0.00004   0.00000   0.00014   0.00014   1.89448
    A4        1.87694   0.00000   0.00000  -0.00001  -0.00001   1.87693
    A5        1.88828  -0.00002   0.00000  -0.00006  -0.00006   1.88822
    A6        2.05796  -0.00002   0.00000  -0.00032  -0.00032   2.05763
    A7        2.33695   0.00004   0.00000   0.00039   0.00039   2.33734
    A8        1.88828  -0.00002   0.00000  -0.00006  -0.00006   1.88822
    A9        2.33695   0.00004   0.00000   0.00039   0.00039   2.33734
   A10        2.05796  -0.00002   0.00000  -0.00032  -0.00032   2.05763
   A11        1.87694   0.00000   0.00000  -0.00001  -0.00001   1.87693
    D1       -3.14155  -0.00002   0.00000  -0.00004  -0.00004   3.14159
    D2       -0.00051   0.00003   0.00000   0.00050   0.00050   0.00000
    D3        3.14103   0.00004   0.00000   0.00056   0.00056   3.14159
    D4       -0.00001  -0.00001   0.00000   0.00001   0.00001   0.00000
    D5        0.00085  -0.00005   0.00000  -0.00084  -0.00084   0.00001
    D6       -3.14122  -0.00002   0.00000  -0.00036  -0.00036  -3.14158
    D7       -0.00086   0.00004   0.00000   0.00085   0.00085  -0.00001
    D8        3.14117   0.00002   0.00000   0.00042   0.00042   3.14158
    D9        3.14132   0.00001   0.00000   0.00026   0.00026   3.14158
   D10        0.00016  -0.00001   0.00000  -0.00017  -0.00017  -0.00001
   D11        0.00055  -0.00002   0.00000  -0.00054  -0.00054   0.00001
   D12       -3.14139  -0.00001   0.00000  -0.00019  -0.00019  -3.14158
         Item               Value     Threshold  Converged?
 Maximum Force            0.000095     0.000450     YES
 RMS     Force            0.000038     0.000300     YES
 Maximum Displacement     0.000682     0.001800     YES
 RMS     Displacement     0.000279     0.001200     YES
 Predicted change in Energy=-1.467234D-07
 Optimization completed.
    -- Stationary point found.
                           ----------------------------
                           !   Optimized Parameters   !
                           ! (Angstroms and Degrees)  !
 --------------------------                            --------------------------
 ! Name  Definition              Value          Derivative Info.                !
 --------------------------------------------------------------------------------
 ! R1    R(1,2)                  1.1986         -DE/DX =    0.0                 !
 ! R2    R(2,3)                  1.3506         -DE/DX =   -0.0001              !
 ! R3    R(2,6)                  1.3506         -DE/DX =   -0.0001              !
 ! R4    R(3,4)                  1.3851         -DE/DX =    0.0001              !
 ! R5    R(4,5)                  1.3279         -DE/DX =    0.0                 !
 ! R6    R(4,7)                  1.0784         -DE/DX =    0.0                 !
 ! R7    R(5,6)                  1.3851         -DE/DX =    0.0001              !
 ! R8    R(5,8)                  1.0784         -DE/DX =    0.0                 !
 ! A1    A(1,2,3)              125.7312         -DE/DX =    0.0                 !
 ! A2    A(1,2,6)              125.7312         -DE/DX =    0.0                 !
 ! A3    A(3,2,6)              108.5376         -DE/DX =    0.0                 !
 ! A4    A(2,3,4)              107.5407         -DE/DX =    0.0                 !
 ! A5    A(3,4,5)              108.1905         -DE/DX =    0.0                 !
 ! A6    A(3,4,7)              117.9122         -DE/DX =    0.0                 !
 ! A7    A(5,4,7)              133.8973         -DE/DX =    0.0                 !
 ! A8    A(4,5,6)              108.1905         -DE/DX =    0.0                 !
 ! A9    A(4,5,8)              133.8973         -DE/DX =    0.0                 !
 ! A10   A(6,5,8)              117.9122         -DE/DX =    0.0                 !
 ! A11   A(2,6,5)              107.5407         -DE/DX =    0.0                 !
 ! D1    D(1,2,3,4)            180.0024         -DE/DX =    0.0                 !
 ! D2    D(6,2,3,4)             -0.029          -DE/DX =    0.0                 !
 ! D3    D(1,2,6,5)            179.9679         -DE/DX =    0.0                 !
 ! D4    D(3,2,6,5)             -0.0007         -DE/DX =    0.0                 !
 ! D5    D(2,3,4,5)              0.0489         -DE/DX =    0.0                 !
 ! D6    D(2,3,4,7)           -179.9786         -DE/DX =    0.0                 !
 ! D7    D(3,4,5,6)             -0.0492         -DE/DX =    0.0                 !
 ! D8    D(3,4,5,8)            179.9756         -DE/DX =    0.0                 !
 ! D9    D(7,4,5,6)            179.9845         -DE/DX =    0.0                 !
 ! D10   D(7,4,5,8)              0.0093         -DE/DX =    0.0                 !
 ! D11   D(4,5,6,2)              0.0316         -DE/DX =    0.0                 !
 ! D12   D(8,5,6,2)           -179.9887         -DE/DX =    0.0                 !
 --------------------------------------------------------------------------------
 GradGradGradGradGradGradGradGradGradGradGradGradGradGradGradGradGradGrad

 Leave Link  103 at Mon May 16 16:23:29 2022, MaxMem=  2147483648 cpu:        12.1
 (Enter /gpfs/runtime/opt/gaussian/g09-D01/g09/l9999.exe)
 1\1\GINC-NODE1714\Freq\RM062X\6-31+G(d,p)\C3H2O3\ROOT\16-May-2022\0\\#
 P Geom=AllCheck Guess=TCheck SCRF=Check GenChk RM062X/6-31+G(d,p) Freq
 \\872-36-6\\0,1\O,-1.9062382258,-0.0000000178,0.0002135086\C,-0.707625
 5958,-0.0000004153,0.0001148668\O,0.0810987799,1.0963654539,0.00037685
 65\C,1.3969622655,0.6639739743,0.0000848041\C,1.3969618531,-0.66397392
 87,-0.0014205985\O,0.0810986619,-1.0963655032,-0.0009779396\H,2.174021
 435,1.4116837376,0.0005912099\H,2.1740208262,-1.4116832936,-0.00248270
 79\\Version=EM64L-G09RevD.01\State=1-A\HF=-341.0657319\RMSD=1.194e-09\
 RMSF=7.071e-05\ZeroPoint=0.0516158\Thermal=0.055835\Dipole=2.5193659,-
 0.0000007,-0.0005076\DipoleDeriv=-2.114907,-0.0000004,0.0005319,0.0000
 003,-0.5469318,-0.0000054,0.00008,-0.0000166,-0.5074919,3.3092685,0.00
 00006,-0.0008451,0.,1.2618757,0.0002964,-0.0007011,0.0003745,0.5883891
 ,-1.3629374,0.2551026,0.0006085,-0.6408123,-0.8038798,-0.000283,0.0000
 731,-0.0002206,-0.1834026,0.6192465,-0.3597973,-0.0003941,-0.3052836,0
 .2548686,0.0004346,-0.0005335,0.000083,-0.1214377,0.619247,0.3597974,-
 0.0000267,0.3052839,0.2548687,0.0002543,0.0000109,-0.0000578,-0.121437
 9,-1.3629381,-0.2551029,0.0000605,0.6408117,-0.8038797,-0.0005993,0.00
 09729,-0.0002384,-0.1834026,0.1465102,0.0603282,0.0000828,0.0195254,0.
 1915392,-0.0000526,0.0000754,0.0000231,0.2643918,0.1465102,-0.0603282,
 -0.0000178,-0.0195254,0.1915392,-0.000045,0.0000224,0.0000529,0.264391
 8\Polar=63.8864721,0.000007,52.8770638,-0.0086985,0.023068,30.9963379\
 PG=C01 [X(C3H2O3)]\NImag=0\\0.91112626,-0.00000014,0.09863760,-0.00012
 643,0.00004150,0.03272487,-0.76942907,0.00000018,0.00006978,1.19342499
 ,0.00000017,-0.09705318,-0.00001198,-0.00000048,0.51373975,0.00008242,
 -0.00000918,-0.07554031,-0.00016749,0.00018154,0.22068968,-0.06885082,
 -0.06301399,-0.00001079,-0.14135777,-0.05193851,-0.00001682,0.49896191
 ,-0.04993760,0.00522792,-0.00000050,-0.02317778,-0.21910053,-0.0000556
 1,0.00146192,0.46263356,-0.00000701,-0.00000037,0.01829325,-0.00000432
 ,-0.00003123,-0.07807069,-0.00011507,0.00022390,0.06918615,-0.00065165
 ,0.00812991,0.00000592,-0.06795112,-0.07357925,-0.00004317,-0.22898603
 ,0.04222981,0.00006495,0.63890963,-0.00381498,-0.00769550,0.00000134,-
 0.01936428,0.01487899,-0.00001117,0.08050302,-0.12568321,-0.00004255,0
 .17037054,0.95401381,-0.00000545,-0.00000341,0.00222844,0.00001653,0.0
 0000015,0.00543111,0.00010391,-0.00005236,-0.04749304,0.00002271,0.000
 80692,0.10881607,-0.00065165,-0.00812992,-0.00000931,-0.06795113,0.073
 57922,0.00009662,-0.06410989,0.01739235,0.00005262,-0.07185065,-0.0193
 4087,-0.00001716,0.63891013,0.00381496,-0.00769549,-0.00000750,0.01936
 428,0.01487896,-0.00000650,0.05240015,-0.05298413,-0.00007543,0.019340
 55,-0.56201329,-0.00057915,-0.17036979,0.95401368,0.00000297,-0.000000
 84,0.00222845,0.00004697,-0.00003471,0.00543104,0.00006371,-0.00004064
 ,0.01734833,0.00002901,-0.00056417,-0.06015895,-0.00038336,0.00094448,
 0.10881641,-0.06885072,0.06301396,0.00006924,-0.14135806,0.05193884,0.
 00004905,0.02044423,0.03494995,0.00001797,-0.06410993,-0.05240019,-0.0
 0001488,-0.22898661,-0.08050327,0.00000653,0.49896271,0.04993758,0.005
 22792,-0.00002252,0.02317809,-0.21910088,-0.00009823,-0.03494998,-0.08
 179774,-0.00006669,-0.01739238,-0.05298416,-0.00002794,-0.04223005,-0.
 12568322,-0.00004732,-0.00146190,0.46263395,0.00005333,-0.00002813,0.0
 1829319,0.00003292,-0.00010813,-0.07807071,-0.00002144,-0.00007917,0.0
 1263090,0.00000438,-0.00004631,0.01734836,0.00004248,-0.00001436,-0.04
 749296,-0.00014009,0.00026960,0.06918614,-0.00134618,-0.00202566,-0.00
 000040,-0.00268892,0.00828380,0.00000241,-0.02159216,-0.02091609,-0.00
 000970,-0.21324645,-0.15435765,-0.00010325,0.00788620,0.00159558,-0.00
 000126,0.00549054,0.00200256,0.00000202,0.22566268,0.00160915,0.001675
 37,-0.00000038,0.00278180,-0.00412155,-0.00000109,0.01487252,0.0148279
 1,0.00000890,-0.16687189,-0.21902345,-0.00014281,-0.01777270,-0.001493
 18,0.00000977,-0.00066487,-0.00312378,-0.00001470,0.16573171,0.2114152
 3,0.00000155,0.00000100,0.00088605,0.00000403,-0.00000027,0.00006493,0
 .00000883,0.00001436,-0.00182926,-0.00010883,-0.00013303,-0.02782296,-
 0.00002780,-0.00001176,0.00165096,0.00001165,-0.00001119,0.00993435,0.
 00011124,0.00013837,0.01985410,-0.00134617,0.00202566,0.00000200,-0.00
 268892,-0.00828380,-0.00000302,0.00549053,-0.00200257,0.00000056,0.007
 88621,-0.00159558,-0.00000240,-0.21324640,0.15435754,0.00023542,-0.021
 59215,0.02091608,0.00002640,-0.00016572,0.00031427,-0.00000067,0.22566
 262,-0.00160915,0.00167537,0.00000005,-0.00278181,-0.00412155,0.000000
 25,0.00066487,-0.00312378,-0.00001654,0.01777271,-0.00149319,-0.000001
 39,0.16687176,-0.21902333,-0.00026657,-0.01487252,0.01482790,0.0000212
 1,-0.00031427,-0.00015656,0.00000251,-0.16573160,0.21141513,-0.0000013
 8,-0.00000057,0.00088605,0.00000158,0.00000464,0.00006494,-0.00001233,
 -0.00000998,0.00993436,0.00002503,-0.00001104,0.00165096,0.00024591,-0
 .00024978,-0.02782329,0.00000053,0.00000429,-0.00182927,-0.00000106,0.
 00000195,-0.00273818,-0.00025828,0.00026049,0.01985444\\0.00002192,0.0
 0000010,-0.00003031,-0.00016868,-0.00000029,0.00008644,0.00013011,0.00
 004501,-0.00008815,-0.00008814,0.00006174,0.00007706,-0.00008835,-0.00
 006185,-0.00006724,0.00013027,-0.00004473,0.00002627,0.00003144,-0.000
 01486,0.00000737,0.00003145,0.00001489,-0.00001143\\\@


 IT MATTERS NOT HOW DEEP YOU PLOW,
 BUT HOW LONG YOU STAY IN THE FURROW.
 Job cpu time:       0 days  0 hours  3 minutes 42.0 seconds.
 File lengths (MBytes):  RWF=    348 Int=      0 D2E=      0 Chk=     12 Scr=      8
 Normal termination of Gaussian 09 at Mon May 16 16:23:30 2022.
