 Entering Gaussian System, Link 0=g09
 Initial command:
 /gpfs/runtime/opt/gaussian/g09-D01/g09/l1.exe "/gpfs/data/yqi27/cgu13/CHEM1560Q/Gaussian/872-36-6/inp3/Gau-230692.inp" -scrdir="/gpfs/data/yqi27/cgu13/CHEM1560Q/Gaussian/872-36-6/inp3/"
 Entering Link 1 = /gpfs/runtime/opt/gaussian/g09-D01/g09/l1.exe PID=    230693.
  
 Copyright (c) 1988,1990,1992,1993,1995,1998,2003,2009,2013,
            Gaussian, Inc.  All Rights Reserved.
  
 This is part of the Gaussian(R) 09 program.  It is based on
 the Gaussian(R) 03 system (copyright 2003, Gaussian, Inc.),
 the Gaussian(R) 98 system (copyright 1998, Gaussian, Inc.),
 the Gaussian(R) 94 system (copyright 1995, Gaussian, Inc.),
 the Gaussian 92(TM) system (copyright 1992, Gaussian, Inc.),
 the Gaussian 90(TM) system (copyright 1990, Gaussian, Inc.),
 the Gaussian 88(TM) system (copyright 1988, Gaussian, Inc.),
 the Gaussian 86(TM) system (copyright 1986, Carnegie Mellon
 University), and the Gaussian 82(TM) system (copyright 1983,
 Carnegie Mellon University). Gaussian is a federally registered
 trademark of Gaussian, Inc.
  
 This software contains proprietary and confidential information,
 including trade secrets, belonging to Gaussian, Inc.
  
 This software is provided under written license and may be
 used, copied, transmitted, or stored only in accord with that
 written license.
  
 The following legend is applicable only to US Government
 contracts under FAR:
  
                    RESTRICTED RIGHTS LEGEND
  
 Use, reproduction and disclosure by the US Government is
 subject to restrictions as set forth in subparagraphs (a)
 and (c) of the Commercial Computer Software - Restricted
 Rights clause in FAR 52.227-19.
  
 Gaussian, Inc.
 340 Quinnipiac St., Bldg. 40, Wallingford CT 06492
  
  
 ---------------------------------------------------------------
 Warning -- This program may not be used in any manner that
 competes with the business of Gaussian, Inc. or will provide
 assistance to any competitor of Gaussian, Inc.  The licensee
 of this program is prohibited from giving any competitor of
 Gaussian, Inc. access to this program.  By using this program,
 the user acknowledges that Gaussian, Inc. is engaged in the
 business of creating and licensing software in the field of
 computational chemistry and represents and warrants to the
 licensee that it is not a competitor of Gaussian, Inc. and that
 it will not use this program in any manner prohibited above.
 ---------------------------------------------------------------
  

 Cite this work as:
 Gaussian 09, Revision D.01,
 M. J. Frisch, G. W. Trucks, H. B. Schlegel, G. E. Scuseria, 
 M. A. Robb, J. R. Cheeseman, G. Scalmani, V. Barone, B. Mennucci, 
 G. A. Petersson, H. Nakatsuji, M. Caricato, X. Li, H. P. Hratchian, 
 A. F. Izmaylov, J. Bloino, G. Zheng, J. L. Sonnenberg, M. Hada, 
 M. Ehara, K. Toyota, R. Fukuda, J. Hasegawa, M. Ishida, T. Nakajima, 
 Y. Honda, O. Kitao, H. Nakai, T. Vreven, J. A. Montgomery, Jr., 
 J. E. Peralta, F. Ogliaro, M. Bearpark, J. J. Heyd, E. Brothers, 
 K. N. Kudin, V. N. Staroverov, T. Keith, R. Kobayashi, J. Normand, 
 K. Raghavachari, A. Rendell, J. C. Burant, S. S. Iyengar, J. Tomasi, 
 M. Cossi, N. Rega, J. M. Millam, M. Klene, J. E. Knox, J. B. Cross, 
 V. Bakken, C. Adamo, J. Jaramillo, R. Gomperts, R. E. Stratmann, 
 O. Yazyev, A. J. Austin, R. Cammi, C. Pomelli, J. W. Ochterski, 
 R. L. Martin, K. Morokuma, V. G. Zakrzewski, G. A. Voth, 
 P. Salvador, J. J. Dannenberg, S. Dapprich, A. D. Daniels, 
 O. Farkas, J. B. Foresman, J. V. Ortiz, J. Cioslowski, 
 and D. J. Fox, Gaussian, Inc., Wallingford CT, 2013.
 
 ******************************************
 Gaussian 09:  EM64L-G09RevD.01 24-Apr-2013
                16-May-2022 
 ******************************************
 %Mem=16GB
 %NProcShared=8
 Will use up to    8 processors via shared memory.
 ----------------------------------------------------------------------
 #P M062X/6-31+G** EmpiricalDispersion=GD3 SCRF(SMD,solvent=DiMethylSul
 foxide) Opt Freq
 ----------------------------------------------------------------------
 1/14=-1,18=20,19=15,26=3,38=1/1,3;
 2/9=110,12=2,17=6,18=5,40=1/2;
 3/5=1,6=6,7=111,11=2,16=1,25=1,30=1,70=32201,71=1,72=21,74=-55,124=31/1,2,3;
 4//1;
 5/5=2,38=5,53=21/2;
 6/7=2,8=2,9=2,10=2,28=1/1;
 7//1,2,3,16;
 1/14=-1,18=20,19=15,26=3/3(2);
 2/9=110/2;
 99//99;
 2/9=110/2;
 3/5=1,6=6,7=111,11=2,16=1,25=1,30=1,70=32205,71=1,72=21,74=-55,124=31/1,2,3;
 4/5=5,16=3,69=1/1;
 5/5=2,38=5,53=21/2;
 7//1,2,3,16;
 1/14=-1,18=20,19=15,26=3/3(-5);
 2/9=110/2;
 6/7=2,8=2,9=2,10=2,19=2,28=1/1;
 99/9=1/99;
 Leave Link    1 at Mon May 16 16:55:56 2022, MaxMem=  2147483648 cpu:         0.6
 (Enter /gpfs/runtime/opt/gaussian/g09-D01/g09/l101.exe)
 --------
 872-36-6
 --------
 Symbolic Z-matrix:
 Charge =  1 Multiplicity = 1
 O                    -1.9336    0.       -0.0008 
 C                    -0.7179    0.       -0.0011 
 O                     0.0735    1.0847    0.0009 
 C                     1.3613    0.6617    0.0002 
 C                     1.3613   -0.6617   -0.0022 
 O                     0.0735   -1.0847    0.0024 
 H                     2.2361    1.2951    0.0009 
 H                     2.2361   -1.2951   -0.0038 
 Li                    0.5863    0.        3.0024 
 
 Add virtual bond connecting atoms Li9        and C2         Dist= 6.19D+00.
 Add virtual bond connecting atoms Li9        and O3         Dist= 6.11D+00.
 Add virtual bond connecting atoms Li9        and C4         Dist= 5.99D+00.
 Add virtual bond connecting atoms Li9        and C5         Dist= 6.00D+00.
 Add virtual bond connecting atoms Li9        and O6         Dist= 6.11D+00.
 NAtoms=      9 NQM=        9 NQMF=       0 NMMI=      0 NMMIF=      0
                NMic=       0 NMicF=      0.
                    Isotopes and Nuclear Properties:
 (Nuclear quadrupole moments (NQMom) in fm**2, nuclear magnetic moments (NMagM)
  in nuclear magnetons)

  Atom         1           2           3           4           5           6           7           8           9
 IAtWgt=          16          12          16          12          12          16           1           1           7
 AtmWgt=  15.9949146  12.0000000  15.9949146  12.0000000  12.0000000  15.9949146   1.0078250   1.0078250   7.0160045
 NucSpn=           0           0           0           0           0           0           1           1           3
 AtZEff=   0.0000000   0.0000000   0.0000000   0.0000000   0.0000000   0.0000000   0.0000000   0.0000000   0.0000000
 NQMom=    0.0000000   0.0000000   0.0000000   0.0000000   0.0000000   0.0000000   0.0000000   0.0000000  -4.0100000
 NMagM=    0.0000000   0.0000000   0.0000000   0.0000000   0.0000000   0.0000000   2.7928460   2.7928460   3.2564240
 AtZNuc=   8.0000000   6.0000000   8.0000000   6.0000000   6.0000000   8.0000000   1.0000000   1.0000000   3.0000000
 Leave Link  101 at Mon May 16 16:55:57 2022, MaxMem=  2147483648 cpu:         2.6
 (Enter /gpfs/runtime/opt/gaussian/g09-D01/g09/l103.exe)

 GradGradGradGradGradGradGradGradGradGradGradGradGradGradGradGradGradGrad
 Berny optimization.
 Initialization pass.
                           ----------------------------
                           !    Initial Parameters    !
                           ! (Angstroms and Degrees)  !
 --------------------------                            --------------------------
 ! Name  Definition              Value          Derivative Info.                !
 --------------------------------------------------------------------------------
 ! R1    R(1,2)                  1.2157         estimate D2E/DX2                !
 ! R2    R(2,3)                  1.3427         estimate D2E/DX2                !
 ! R3    R(2,6)                  1.3427         estimate D2E/DX2                !
 ! R4    R(2,9)                  3.2744         estimate D2E/DX2                !
 ! R5    R(3,4)                  1.3555         estimate D2E/DX2                !
 ! R6    R(3,9)                  3.2324         estimate D2E/DX2                !
 ! R7    R(4,5)                  1.3234         estimate D2E/DX2                !
 ! R8    R(4,7)                  1.08           estimate D2E/DX2                !
 ! R9    R(4,9)                  3.1704         estimate D2E/DX2                !
 ! R10   R(5,6)                  1.3555         estimate D2E/DX2                !
 ! R11   R(5,8)                  1.08           estimate D2E/DX2                !
 ! R12   R(5,9)                  3.1727         estimate D2E/DX2                !
 ! R13   R(6,9)                  3.231          estimate D2E/DX2                !
 ! A1    A(1,2,3)              126.1145         estimate D2E/DX2                !
 ! A2    A(1,2,6)              126.1144         estimate D2E/DX2                !
 ! A3    A(1,2,9)              113.4576         estimate D2E/DX2                !
 ! A4    A(3,2,6)              107.7705         estimate D2E/DX2                !
 ! A5    A(2,3,4)              107.9309         estimate D2E/DX2                !
 ! A6    A(3,4,5)              108.1837         estimate D2E/DX2                !
 ! A7    A(3,4,7)              125.9098         estimate D2E/DX2                !
 ! A8    A(5,4,7)              125.9065         estimate D2E/DX2                !
 ! A9    A(7,4,9)              108.6497         estimate D2E/DX2                !
 ! A10   A(4,5,6)              108.1831         estimate D2E/DX2                !
 ! A11   A(4,5,8)              125.9065         estimate D2E/DX2                !
 ! A12   A(6,5,8)              125.91           estimate D2E/DX2                !
 ! A13   A(8,5,9)              108.7578         estimate D2E/DX2                !
 ! A14   A(2,6,5)              107.9302         estimate D2E/DX2                !
 ! A15   A(2,9,4)               39.5364         estimate D2E/DX2                !
 ! A16   A(2,9,5)               39.5237         estimate D2E/DX2                !
 ! A17   A(3,9,5)               39.5902         estimate D2E/DX2                !
 ! A18   A(3,9,6)               39.2231         estimate D2E/DX2                !
 ! A19   A(4,9,6)               39.6134         estimate D2E/DX2                !
 ! D1    D(1,2,3,4)            179.9789         estimate D2E/DX2                !
 ! D2    D(6,2,3,4)              0.2429         estimate D2E/DX2                !
 ! D3    D(1,2,6,5)            179.8738         estimate D2E/DX2                !
 ! D4    D(3,2,6,5)             -0.3902         estimate D2E/DX2                !
 ! D5    D(1,2,9,4)           -160.8607         estimate D2E/DX2                !
 ! D6    D(1,2,9,5)            160.8696         estimate D2E/DX2                !
 ! D7    D(2,3,4,5)              0.0004         estimate D2E/DX2                !
 ! D8    D(2,3,4,7)            179.968          estimate D2E/DX2                !
 ! D9    D(3,4,5,6)             -0.2418         estimate D2E/DX2                !
 ! D10   D(3,4,5,8)            179.9675         estimate D2E/DX2                !
 ! D11   D(7,4,5,6)            179.7906         estimate D2E/DX2                !
 ! D12   D(7,4,5,8)             -0.0002         estimate D2E/DX2                !
 ! D13   D(7,4,9,2)            160.8677         estimate D2E/DX2                !
 ! D14   D(7,4,9,6)           -161.3454         estimate D2E/DX2                !
 ! D15   D(4,5,6,2)              0.3931         estimate D2E/DX2                !
 ! D16   D(8,5,6,2)           -179.8161         estimate D2E/DX2                !
 ! D17   D(8,5,9,2)           -160.8639         estimate D2E/DX2                !
 ! D18   D(8,5,9,3)            161.3415         estimate D2E/DX2                !
 --------------------------------------------------------------------------------
 Trust Radius=3.00D-01 FncErr=1.00D-07 GrdErr=1.00D-06
 Number of steps in this run=     60 maximum allowed number of steps=    100.
 GradGradGradGradGradGradGradGradGradGradGradGradGradGradGradGradGradGrad

 Leave Link  103 at Mon May 16 16:55:57 2022, MaxMem=  2147483648 cpu:         0.1
 (Enter /gpfs/runtime/opt/gaussian/g09-D01/g09/l202.exe)
                          Input orientation:                          
 ---------------------------------------------------------------------
 Center     Atomic      Atomic             Coordinates (Angstroms)
 Number     Number       Type             X           Y           Z
 ---------------------------------------------------------------------
      1          8           0       -1.933600    0.000000   -0.000800
      2          6           0       -0.717900    0.000000   -0.001100
      3          8           0        0.073500    1.084700    0.000900
      4          6           0        1.361300    0.661700    0.000200
      5          6           0        1.361300   -0.661700   -0.002200
      6          8           0        0.073500   -1.084700    0.002400
      7          1           0        2.236100    1.295100    0.000900
      8          1           0        2.236100   -1.295100   -0.003800
      9          3           0        0.586300    0.000000    3.002400
 ---------------------------------------------------------------------
                    Distance matrix (angstroms):
                    1          2          3          4          5
     1  O    0.000000
     2  C    1.215700   0.000000
     3  O    2.281453   1.342718   0.000000
     4  C    3.360687   2.181954   1.355492   0.000000
     5  C    3.360687   2.181953   2.169874   1.323402   0.000000
     6  O    2.281455   1.342721   2.169401   2.169872   1.355500
     7  H    4.366198   3.225431   2.172811   1.080033   2.143444
     8  H    4.366199   3.225431   3.215635   2.143445   1.080034
     9  Li   3.920345   3.274439   3.232420   3.170438   3.172711
                    6          7          8          9
     6  O    0.000000
     7  H    3.215632   0.000000
     8  H    2.172820   2.590204   0.000000
     9  Li   3.231027   3.661711   3.665564   0.000000
 Stoichiometry    C3H2LiO3(1+)
 Framework group  C1[X(C3H2LiO3)]
 Deg. of freedom    21
 Full point group                 C1      NOp   1
 Largest Abelian subgroup         C1      NOp   1
 Largest concise Abelian subgroup C1      NOp   1
                         Standard orientation:                         
 ---------------------------------------------------------------------
 Center     Atomic      Atomic             Coordinates (Angstroms)
 Number     Number       Type             X           Y           Z
 ---------------------------------------------------------------------
      1          8           0        2.026943   -0.000043    0.028663
      2          6           0        0.818517    0.000097   -0.104126
      3          8           0        0.031605   -1.084513   -0.189461
      4          6           0       -1.248445   -0.661365   -0.330086
      5          6           0       -1.248174    0.662037   -0.331163
      6          8           0        0.031457    1.084884   -0.185823
      7          1           0       -2.118115   -1.294664   -0.425355
      8          1           0       -2.117584    1.295539   -0.427465
      9          3           0       -0.805245   -0.002704    2.739347
 ---------------------------------------------------------------------
 Rotational constants (GHZ):      4.6777395      2.8643918      2.7856995
 Leave Link  202 at Mon May 16 16:55:57 2022, MaxMem=  2147483648 cpu:         0.6
 (Enter /gpfs/runtime/opt/gaussian/g09-D01/g09/l301.exe)
 Standard basis: 6-31+G(d,p) (6D, 7F)
 Ernie: Thresh=  0.10000D-02 Tol=  0.10000D-05 Strict=F.
 There are   143 symmetry adapted cartesian basis functions of A   symmetry.
 There are   143 symmetry adapted basis functions of A   symmetry.
   143 basis functions,   238 primitive gaussians,   143 cartesian basis functions
    23 alpha electrons       23 beta electrons
       nuclear repulsion energy       252.2572395126 Hartrees.
 IExCor= 4336 DFT=T Ex+Corr=M062X ExCW=0 ScaHFX=  0.540000
 ScaDFX=  1.000000  1.000000  1.000000  1.000000 ScalE2=  1.000000  1.000000
 IRadAn=      0 IRanWt=     -1 IRanGd=            0 ICorTp=0 IEmpDi=131
 NAtoms=    9 NActive=    9 NUniq=    9 SFac= 1.00D+00 NAtFMM=   60 NAOKFM=F Big=F
 Integral buffers will be    131072 words long.
 Raffenetti 2 integral format.
 Two-electron integral symmetry is turned on.
 R6Disp:  Grimme-D3 Dispersion energy=       -0.0000784401 Hartrees.
 Nuclear repulsion after empirical dispersion term =      252.2571610725 Hartrees.
 ------------------------------------------------------------------------------
 Polarizable Continuum Model (PCM)
 =================================
 Model                : PCM (using non-symmetric T matrix).
 Atomic radii         : SMD-Coulomb.
 Polarization charges : Total charges.
 Charge compensation  : None.
 Solution method      : On-the-fly selection.
 Cavity type          : VdW (van der Waals Surface) (Alpha=1.000).
 Cavity algorithm     : GePol (No added spheres)
                        Default sphere list used, NSphG=    9.
                        Lebedev-Laikov grids with approx.  5.0 points / Ang**2.
                        Smoothing algorithm: Karplus/York (Gamma=1.0000).
                        Polarization charges: spherical gaussians, with
                                              point-specific exponents (IZeta= 3).
                        Self-potential: point-specific (ISelfS= 7).
                        Self-field    : sphere-specific E.n sum rule (ISelfD= 2).
 1st derivatives      : Analytical E(r).r(x)/FMM algorithm (CHGder, D1EAlg=3).
                        Cavity 1st derivative terms included.
 Solvent              : DiMethylSulfoxide, Eps=  46.826000 Eps(inf)=   2.007889
 ------------------------------------------------------------------------------
 Spheres list:
 ISph  on   Nord     Re0    Alpha      Xe            Ye            Ze
    1   O      1    2.2940  1.000      2.026943     -0.000043      0.028663
    2   C      2    1.8500  1.000      0.818517      0.000097     -0.104126
    3   O      3    2.2940  1.000      0.031605     -1.084513     -0.189461
    4   C      4    1.8500  1.000     -1.248445     -0.661365     -0.330086
    5   C      5    1.8500  1.000     -1.248174      0.662037     -0.331163
    6   O      6    2.2940  1.000      0.031457      1.084884     -0.185823
    7   H      7    1.2000  1.000     -2.118115     -1.294664     -0.425355
    8   H      8    1.2000  1.000     -2.117584      1.295539     -0.427465
    9  Li      9    1.8200  1.000     -0.805245     -0.002704      2.739347
 ------------------------------------------------------------------------------
 GePol: Number of generator spheres                  =       9
 GePol: Total number of spheres                      =       9
 GePol: Number of exposed spheres                    =       9 (100.00%)
 GePol: Number of points                             =    1183
 GePol: Average weight of points                     =       0.13
 GePol: Minimum weight of points                     =   0.44D-05
 GePol: Maximum weight of points                     =    0.17992
 GePol: Number of points with low weight             =      37
 GePol: Fraction of low-weight points (<1% of avg)   =       3.13%
 GePol: Cavity surface area                          =    154.655 Ang**2
 GePol: Cavity volume                                =    144.796 Ang**3
 ------------------------------------------------------------------------------
 Atomic radii for non-electrostatic terms: SMD-CDS.
 ------------------------------------------------------------------------------
 PCM non-electrostatic energy =         0.0004351606 Hartrees.
 Nuclear repulsion after PCM non-electrostatic terms =      252.2575962331 Hartrees.
 Leave Link  301 at Mon May 16 16:55:57 2022, MaxMem=  2147483648 cpu:         0.7
 (Enter /gpfs/runtime/opt/gaussian/g09-D01/g09/l302.exe)
 NPDir=0 NMtPBC=     1 NCelOv=     1 NCel=       1 NClECP=     1 NCelD=      1
         NCelK=      1 NCelE2=     1 NClLst=     1 CellRange=     0.0.
 One-electron integrals computed using PRISM.
 NBasis=   143 RedAO= T EigKep=  6.06D-05  NBF=   143
 NBsUse=   143 1.00D-06 EigRej= -1.00D+00 NBFU=   143
 Precomputing XC quadrature grid using
 IXCGrd= 4 IRadAn=           0 IRanWt=          -1 IRanGd=           0 AccXCQ= 0.00D+00.
 Generated NRdTot=       0 NPtTot=           0 NUsed=           0 NTot=          32
 NSgBfM=   143   143   143   143   143 MxSgAt=     9 MxSgA2=     9.
 Leave Link  302 at Mon May 16 16:55:59 2022, MaxMem=  2147483648 cpu:         5.1
 (Enter /gpfs/runtime/opt/gaussian/g09-D01/g09/l303.exe)
 DipDrv:  MaxL=1.
 Leave Link  303 at Mon May 16 16:55:59 2022, MaxMem=  2147483648 cpu:         0.9
 (Enter /gpfs/runtime/opt/gaussian/g09-D01/g09/l401.exe)
 ExpMin= 7.40D-03 ExpMax= 5.48D+03 ExpMxC= 8.25D+02 IAcc=3 IRadAn=         5 AccDes= 0.00D+00
 Harris functional with IExCor= 1009 and IRadAn=       5 diagonalized for initial guess.
 HarFok:  IExCor= 1009 AccDes= 0.00D+00 IRadAn=         5 IDoV= 1 UseB2=F ITyADJ=14
 ICtDFT=  3500011 ScaDFX=  1.000000  1.000000  1.000000  1.000000
 FoFCou: FMM=F IPFlag=           0 FMFlag=      100000 FMFlg1=           0
         NFxFlg=           0 DoJE=T BraDBF=F KetDBF=T FulRan=T
         wScrn=  0.000000 ICntrl=     500 IOpCl=  0 I1Cent=   200000004 NGrid=           0
         NMat0=    1 NMatS0=      1 NMatT0=    0 NMatD0=    1 NMtDS0=    0 NMtDT0=    0
 Petite list used in FoFCou.
 Harris En= -348.212213593626    
 JPrj=0 DoOrth=F DoCkMO=F.
 Leave Link  401 at Mon May 16 16:56:00 2022, MaxMem=  2147483648 cpu:         7.8
 (Enter /gpfs/runtime/opt/gaussian/g09-D01/g09/l502.exe)
 Closed shell SCF:
 Using DIIS extrapolation, IDIIS=  1040.
 Integral symmetry usage will be decided dynamically.
 Keep R1 ints in memory in canonical form, NReq=57622585.
 IVT=       82101 IEndB=       82101 NGot=  2147483648 MDV=  2094392592
 LenX=  2094392592 LenY=  2094371702
 Requested convergence on RMS density matrix=1.00D-08 within 128 cycles.
 Requested convergence on MAX density matrix=1.00D-06.
 Requested convergence on             energy=1.00D-06.
 No special actions if energy rises.
 FoFCou: FMM=F IPFlag=           0 FMFlag=           0 FMFlg1=           0
         NFxFlg=           0 DoJE=F BraDBF=F KetDBF=F FulRan=T
         wScrn=  0.000000 ICntrl=     600 IOpCl=  0 I1Cent=           0 NGrid=           0
         NMat0=    1 NMatS0=  10296 NMatT0=    0 NMatD0=    1 NMtDS0=    0 NMtDT0=    0
 Symmetry not used in FoFCou.

 Cycle   1  Pass 1  IDiag  1:
 Inv3:  Mode=1 IEnd=     4198467.
 Iteration    1 A*A^-1 deviation from unit magnitude is 5.88D-15 for    188.
 Iteration    1 A*A^-1 deviation from orthogonality  is 4.11D-15 for    445     74.
 Iteration    1 A^-1*A deviation from unit magnitude is 4.88D-15 for    637.
 Iteration    1 A^-1*A deviation from orthogonality  is 3.77D-13 for    361    360.
 E= -348.362366329273    
 DIIS: error= 2.87D-02 at cycle   1 NSaved=   1.
 NSaved= 1 IEnMin= 1 EnMin= -348.362366329273     IErMin= 1 ErrMin= 2.87D-02
 ErrMax= 2.87D-02  0.00D+00 EMaxC= 1.00D-01 BMatC= 1.69D-01 BMatP= 1.69D-01
 IDIUse=3 WtCom= 7.13D-01 WtEn= 2.87D-01
 Coeff-Com:  0.100D+01
 Coeff-En:   0.100D+01
 Coeff:      0.100D+01
 Gap=     0.262 Goal=   None    Shift=    0.000
 GapD=    0.262 DampG=1.000 DampE=0.500 DampFc=0.5000 IDamp=-1.
 Damping current iteration by 5.00D-01
 RMSDP=6.32D-03 MaxDP=1.71D-01              OVMax= 2.04D-01

 Cycle   2  Pass 1  IDiag  1:
 E= -348.404821192145     Delta-E=       -0.042454862872 Rises=F Damp=T
 DIIS: error= 1.22D-02 at cycle   2 NSaved=   2.
 NSaved= 2 IEnMin= 2 EnMin= -348.404821192145     IErMin= 2 ErrMin= 1.22D-02
 ErrMax= 1.22D-02  0.00D+00 EMaxC= 1.00D-01 BMatC= 2.26D-02 BMatP= 1.69D-01
 IDIUse=3 WtCom= 8.78D-01 WtEn= 1.22D-01
 Coeff-Com:  0.905D-01 0.910D+00
 Coeff-En:   0.208D+00 0.792D+00
 Coeff:      0.105D+00 0.895D+00
 Gap=     0.290 Goal=   None    Shift=    0.000
 RMSDP=1.69D-03 MaxDP=3.04D-02 DE=-4.25D-02 OVMax= 1.49D-01

 Cycle   3  Pass 1  IDiag  1:
 E= -348.469707416582     Delta-E=       -0.064886224437 Rises=F Damp=F
 DIIS: error= 5.57D-03 at cycle   3 NSaved=   3.
 NSaved= 3 IEnMin= 3 EnMin= -348.469707416582     IErMin= 3 ErrMin= 5.57D-03
 ErrMax= 5.57D-03  0.00D+00 EMaxC= 1.00D-01 BMatC= 7.93D-03 BMatP= 2.26D-02
 IDIUse=3 WtCom= 9.44D-01 WtEn= 5.57D-02
 Coeff-Com: -0.691D-01 0.355D+00 0.714D+00
 Coeff-En:   0.000D+00 0.000D+00 0.100D+01
 Coeff:     -0.652D-01 0.335D+00 0.730D+00
 Gap=     0.303 Goal=   None    Shift=    0.000
 RMSDP=7.10D-04 MaxDP=2.15D-02 DE=-6.49D-02 OVMax= 3.22D-02

 Cycle   4  Pass 1  IDiag  1:
 E= -348.474936267123     Delta-E=       -0.005228850541 Rises=F Damp=F
 DIIS: error= 2.44D-03 at cycle   4 NSaved=   4.
 NSaved= 4 IEnMin= 4 EnMin= -348.474936267123     IErMin= 4 ErrMin= 2.44D-03
 ErrMax= 2.44D-03  0.00D+00 EMaxC= 1.00D-01 BMatC= 1.22D-03 BMatP= 7.93D-03
 IDIUse=3 WtCom= 9.76D-01 WtEn= 2.44D-02
 Coeff-Com: -0.348D-01 0.887D-01 0.349D+00 0.597D+00
 Coeff-En:   0.000D+00 0.000D+00 0.679D-01 0.932D+00
 Coeff:     -0.340D-01 0.865D-01 0.342D+00 0.605D+00
 Gap=     0.297 Goal=   None    Shift=    0.000
 RMSDP=2.18D-04 MaxDP=5.30D-03 DE=-5.23D-03 OVMax= 8.78D-03

 Cycle   5  Pass 1  IDiag  1:
 E= -348.475833869789     Delta-E=       -0.000897602666 Rises=F Damp=F
 DIIS: error= 4.90D-04 at cycle   5 NSaved=   5.
 NSaved= 5 IEnMin= 5 EnMin= -348.475833869789     IErMin= 5 ErrMin= 4.90D-04
 ErrMax= 4.90D-04  0.00D+00 EMaxC= 1.00D-01 BMatC= 3.70D-05 BMatP= 1.22D-03
 IDIUse=3 WtCom= 9.95D-01 WtEn= 4.90D-03
 Coeff-Com: -0.919D-02 0.158D-01 0.909D-01 0.227D+00 0.675D+00
 Coeff-En:   0.000D+00 0.000D+00 0.000D+00 0.000D+00 0.100D+01
 Coeff:     -0.915D-02 0.158D-01 0.904D-01 0.226D+00 0.677D+00
 Gap=     0.296 Goal=   None    Shift=    0.000
 RMSDP=4.09D-05 MaxDP=9.36D-04 DE=-8.98D-04 OVMax= 1.82D-03

 Cycle   6  Pass 1  IDiag  1:
 E= -348.475863427595     Delta-E=       -0.000029557806 Rises=F Damp=F
 DIIS: error= 1.04D-04 at cycle   6 NSaved=   6.
 NSaved= 6 IEnMin= 6 EnMin= -348.475863427595     IErMin= 6 ErrMin= 1.04D-04
 ErrMax= 1.04D-04  0.00D+00 EMaxC= 1.00D-01 BMatC= 2.89D-06 BMatP= 3.70D-05
 IDIUse=3 WtCom= 9.99D-01 WtEn= 1.04D-03
 Coeff-Com: -0.154D-02 0.831D-03 0.139D-01 0.432D-01 0.263D+00 0.681D+00
 Coeff-En:   0.000D+00 0.000D+00 0.000D+00 0.000D+00 0.000D+00 0.100D+01
 Coeff:     -0.154D-02 0.830D-03 0.139D-01 0.431D-01 0.263D+00 0.681D+00
 Gap=     0.296 Goal=   None    Shift=    0.000
 RMSDP=1.28D-05 MaxDP=2.50D-04 DE=-2.96D-05 OVMax= 5.31D-04

 Cycle   7  Pass 1  IDiag  1:
 E= -348.475865872056     Delta-E=       -0.000002444461 Rises=F Damp=F
 DIIS: error= 3.97D-05 at cycle   7 NSaved=   7.
 NSaved= 7 IEnMin= 7 EnMin= -348.475865872056     IErMin= 7 ErrMin= 3.97D-05
 ErrMax= 3.97D-05  0.00D+00 EMaxC= 1.00D-01 BMatC= 2.05D-07 BMatP= 2.89D-06
 IDIUse=1 WtCom= 1.00D+00 WtEn= 0.00D+00
 Coeff-Com:  0.972D-03-0.206D-02-0.850D-02-0.241D-01-0.178D-01 0.113D+00
 Coeff-Com:  0.938D+00
 Coeff:      0.972D-03-0.206D-02-0.850D-02-0.241D-01-0.178D-01 0.113D+00
 Coeff:      0.938D+00
 Gap=     0.296 Goal=   None    Shift=    0.000
 RMSDP=7.40D-06 MaxDP=1.73D-04 DE=-2.44D-06 OVMax= 2.41D-04

 Cycle   8  Pass 1  IDiag  1:
 E= -348.475866188650     Delta-E=       -0.000000316595 Rises=F Damp=F
 DIIS: error= 1.31D-05 at cycle   8 NSaved=   8.
 NSaved= 8 IEnMin= 8 EnMin= -348.475866188650     IErMin= 8 ErrMin= 1.31D-05
 ErrMax= 1.31D-05  0.00D+00 EMaxC= 1.00D-01 BMatC= 2.87D-08 BMatP= 2.05D-07
 IDIUse=1 WtCom= 1.00D+00 WtEn= 0.00D+00
 Coeff-Com:  0.452D-03-0.725D-03-0.320D-02-0.111D-01-0.241D-01-0.275D-01
 Coeff-Com:  0.282D+00 0.784D+00
 Coeff:      0.452D-03-0.725D-03-0.320D-02-0.111D-01-0.241D-01-0.275D-01
 Coeff:      0.282D+00 0.784D+00
 Gap=     0.296 Goal=   None    Shift=    0.000
 RMSDP=2.21D-06 MaxDP=4.43D-05 DE=-3.17D-07 OVMax= 1.11D-04

 Cycle   9  Pass 1  IDiag  1:
 E= -348.475866225759     Delta-E=       -0.000000037108 Rises=F Damp=F
 DIIS: error= 4.09D-06 at cycle   9 NSaved=   9.
 NSaved= 9 IEnMin= 9 EnMin= -348.475866225759     IErMin= 9 ErrMin= 4.09D-06
 ErrMax= 4.09D-06  0.00D+00 EMaxC= 1.00D-01 BMatC= 2.06D-09 BMatP= 2.87D-08
 IDIUse=1 WtCom= 1.00D+00 WtEn= 0.00D+00
 Coeff-Com: -0.664D-04 0.143D-03 0.101D-02 0.219D-02 0.215D-02-0.138D-01
 Coeff-Com: -0.106D+00 0.946D-02 0.111D+01
 Coeff:     -0.664D-04 0.143D-03 0.101D-02 0.219D-02 0.215D-02-0.138D-01
 Coeff:     -0.106D+00 0.946D-02 0.111D+01
 Gap=     0.296 Goal=   None    Shift=    0.000
 RMSDP=1.10D-06 MaxDP=2.79D-05 DE=-3.71D-08 OVMax= 4.60D-05

 Cycle  10  Pass 1  IDiag  1:
 E= -348.475866229722     Delta-E=       -0.000000003963 Rises=F Damp=F
 DIIS: error= 4.55D-07 at cycle  10 NSaved=  10.
 NSaved=10 IEnMin=10 EnMin= -348.475866229722     IErMin=10 ErrMin= 4.55D-07
 ErrMax= 4.55D-07  0.00D+00 EMaxC= 1.00D-01 BMatC= 3.39D-11 BMatP= 2.06D-09
 IDIUse=1 WtCom= 1.00D+00 WtEn= 0.00D+00
 Coeff-Com: -0.113D-04 0.182D-04 0.126D-03 0.351D-03 0.829D-03 0.100D-02
 Coeff-Com: -0.101D-01-0.291D-01-0.454D-02 0.104D+01
 Coeff:     -0.113D-04 0.182D-04 0.126D-03 0.351D-03 0.829D-03 0.100D-02
 Coeff:     -0.101D-01-0.291D-01-0.454D-02 0.104D+01
 Gap=     0.296 Goal=   None    Shift=    0.000
 RMSDP=1.35D-07 MaxDP=2.08D-06 DE=-3.96D-09 OVMax= 7.03D-06

 Cycle  11  Pass 1  IDiag  1:
 E= -348.475866229796     Delta-E=       -0.000000000074 Rises=F Damp=F
 DIIS: error= 1.12D-07 at cycle  11 NSaved=  11.
 NSaved=11 IEnMin=11 EnMin= -348.475866229796     IErMin=11 ErrMin= 1.12D-07
 ErrMax= 1.12D-07  0.00D+00 EMaxC= 1.00D-01 BMatC= 2.37D-12 BMatP= 3.39D-11
 IDIUse=1 WtCom= 1.00D+00 WtEn= 0.00D+00
 Coeff-Com:  0.500D-06-0.215D-05-0.299D-05-0.146D-05 0.111D-03 0.579D-03
 Coeff-Com:  0.117D-02-0.445D-02-0.347D-01 0.173D+00 0.865D+00
 Coeff:      0.500D-06-0.215D-05-0.299D-05-0.146D-05 0.111D-03 0.579D-03
 Coeff:      0.117D-02-0.445D-02-0.347D-01 0.173D+00 0.865D+00
 Gap=     0.296 Goal=   None    Shift=    0.000
 RMSDP=2.14D-08 MaxDP=4.35D-07 DE=-7.39D-11 OVMax= 8.22D-07

 Cycle  12  Pass 1  IDiag  1:
 E= -348.475866229794     Delta-E=        0.000000000002 Rises=F Damp=F
 DIIS: error= 6.97D-08 at cycle  12 NSaved=  12.
 NSaved=12 IEnMin=11 EnMin= -348.475866229796     IErMin=12 ErrMin= 6.97D-08
 ErrMax= 6.97D-08  0.00D+00 EMaxC= 1.00D-01 BMatC= 1.36D-12 BMatP= 2.37D-12
 IDIUse=1 WtCom= 1.00D+00 WtEn= 0.00D+00
 Coeff-Com:  0.207D-05-0.420D-05-0.197D-04-0.525D-04-0.527D-04 0.190D-03
 Coeff-Com:  0.215D-02 0.189D-02-0.201D-01-0.567D-01 0.515D+00 0.558D+00
 Coeff:      0.207D-05-0.420D-05-0.197D-04-0.525D-04-0.527D-04 0.190D-03
 Coeff:      0.215D-02 0.189D-02-0.201D-01-0.567D-01 0.515D+00 0.558D+00
 Gap=     0.296 Goal=   None    Shift=    0.000
 RMSDP=8.55D-09 MaxDP=1.99D-07 DE= 1.59D-12 OVMax= 3.39D-07

 Error on total polarization charges =  0.00811
 SCF Done:  E(RM062X) =  -348.475866230     A.U. after   12 cycles
            NFock= 12  Conv=0.85D-08     -V/T= 2.0081
 KE= 3.456619347087D+02 PE=-1.312451173530D+03 EE= 3.660557763588D+02
 SMD-CDS (non-electrostatic) energy       (kcal/mol) =       0.27
 (included in total energy above)
 Leave Link  502 at Mon May 16 16:56:14 2022, MaxMem=  2147483648 cpu:        86.2
 (Enter /gpfs/runtime/opt/gaussian/g09-D01/g09/l601.exe)
 Copying SCF densities to generalized density rwf, IOpCl= 0 IROHF=0.

 **********************************************************************

            Population analysis using the SCF density.

 **********************************************************************

 Orbital symmetries:
       Occupied  (A) (A) (A) (A) (A) (A) (A) (A) (A) (A) (A) (A)
                 (A) (A) (A) (A) (A) (A) (A) (A) (A) (A) (A)
       Virtual   (A) (A) (A) (A) (A) (A) (A) (A) (A) (A) (A) (A)
                 (A) (A) (A) (A) (A) (A) (A) (A) (A) (A) (A) (A)
                 (A) (A) (A) (A) (A) (A) (A) (A) (A) (A) (A) (A)
                 (A) (A) (A) (A) (A) (A) (A) (A) (A) (A) (A) (A)
                 (A) (A) (A) (A) (A) (A) (A) (A) (A) (A) (A) (A)
                 (A) (A) (A) (A) (A) (A) (A) (A) (A) (A) (A) (A)
                 (A) (A) (A) (A) (A) (A) (A) (A) (A) (A) (A) (A)
                 (A) (A) (A) (A) (A) (A) (A) (A) (A) (A) (A) (A)
                 (A) (A) (A) (A) (A) (A) (A) (A) (A) (A) (A) (A)
                 (A) (A) (A) (A) (A) (A) (A) (A) (A) (A) (A) (A)
 The electronic state is 1-A.
 Alpha  occ. eigenvalues --  -19.75677 -19.75674 -19.66502 -10.76621 -10.63447
 Alpha  occ. eigenvalues --  -10.63326  -2.23906  -1.36067  -1.23299  -1.18950
 Alpha  occ. eigenvalues --   -0.90812  -0.78473  -0.75860  -0.65554  -0.64328
 Alpha  occ. eigenvalues --   -0.57548  -0.55489  -0.51181  -0.50575  -0.49798
 Alpha  occ. eigenvalues --   -0.46223  -0.40683  -0.32206
 Alpha virt. eigenvalues --   -0.02632   0.00140   0.00272   0.00341   0.01366
 Alpha virt. eigenvalues --    0.02814   0.03946   0.04457   0.04748   0.05142
 Alpha virt. eigenvalues --    0.05789   0.06735   0.07027   0.07137   0.07150
 Alpha virt. eigenvalues --    0.08497   0.10898   0.11628   0.13331   0.13639
 Alpha virt. eigenvalues --    0.15579   0.15922   0.17120   0.19341   0.20434
 Alpha virt. eigenvalues --    0.21899   0.22277   0.23172   0.23680   0.25213
 Alpha virt. eigenvalues --    0.25874   0.29107   0.29425   0.29810   0.29980
 Alpha virt. eigenvalues --    0.30693   0.31258   0.32167   0.36974   0.37342
 Alpha virt. eigenvalues --    0.38676   0.39319   0.41387   0.47734   0.51438
 Alpha virt. eigenvalues --    0.51850   0.52280   0.54449   0.56184   0.58685
 Alpha virt. eigenvalues --    0.62118   0.69281   0.76670   0.77505   0.81646
 Alpha virt. eigenvalues --    0.84577   0.89495   0.90631   0.92894   0.94233
 Alpha virt. eigenvalues --    1.00423   1.05067   1.15159   1.17609   1.20683
 Alpha virt. eigenvalues --    1.21731   1.25980   1.30325   1.32655   1.34493
 Alpha virt. eigenvalues --    1.35250   1.35568   1.35867   1.36495   1.38734
 Alpha virt. eigenvalues --    1.42291   1.45591   1.48348   1.48507   1.58384
 Alpha virt. eigenvalues --    1.62849   1.69027   1.80955   1.82006   1.84094
 Alpha virt. eigenvalues --    1.90107   1.91455   1.96053   1.97412   2.04044
 Alpha virt. eigenvalues --    2.07887   2.12900   2.14313   2.22599   2.23793
 Alpha virt. eigenvalues --    2.32380   2.35618   2.43719   2.52766   2.56710
 Alpha virt. eigenvalues --    2.63233   2.69273   2.72052   2.74130   2.77491
 Alpha virt. eigenvalues --    2.81707   2.92296   2.98022   3.05185   3.09623
 Alpha virt. eigenvalues --    3.21552   3.25213   3.39824   3.71324   4.25380
 Alpha virt. eigenvalues --    4.30507   4.58680   4.63313   4.67606   4.67676
          Condensed to atoms (all electrons):
               1          2          3          4          5          6
     1  O    8.261372   0.450920  -0.107379   0.018463   0.018424  -0.107302
     2  C    0.450920   4.649951   0.258802  -0.137317  -0.135615   0.258126
     3  O   -0.107379   0.258802   8.295017   0.165888  -0.084234  -0.179398
     4  C    0.018463  -0.137317   0.165888   5.127519   0.542962  -0.083935
     5  C    0.018424  -0.135615  -0.084234   0.542962   5.127691   0.165480
     6  O   -0.107302   0.258126  -0.179398  -0.083935   0.165480   8.295426
     7  H    0.000105   0.009195  -0.028389   0.366304  -0.015194   0.002814
     8  H    0.000103   0.009280   0.002808  -0.015306   0.366420  -0.028441
     9  Li  -0.002747  -0.024156   0.002668   0.010543   0.010457   0.002832
               7          8          9
     1  O    0.000105   0.000103  -0.002747
     2  C    0.009195   0.009280  -0.024156
     3  O   -0.028389   0.002808   0.002668
     4  C    0.366304  -0.015306   0.010543
     5  C   -0.015194   0.366420   0.010457
     6  O    0.002814  -0.028441   0.002832
     7  H    0.393665   0.000166   0.001778
     8  H    0.000166   0.393652   0.001739
     9  Li   0.001778   0.001739   2.021982
 Mulliken charges:
               1
     1  O   -0.531959
     2  C    0.660814
     3  O   -0.325783
     4  C    0.004880
     5  C    0.003610
     6  O   -0.325602
     7  H    0.269556
     8  H    0.269580
     9  Li   0.974904
 Sum of Mulliken charges =   1.00000
 Mulliken charges with hydrogens summed into heavy atoms:
               1
     1  O   -0.531959
     2  C    0.660814
     3  O   -0.325783
     4  C    0.274436
     5  C    0.273190
     6  O   -0.325602
     9  Li   0.974904
 Electronic spatial extent (au):  <R**2>=            469.6644
 Charge=              1.0000 electrons
 Dipole moment (field-independent basis, Debye):
    X=            -10.2855    Y=             -0.0110    Z=             11.8717  Tot=             15.7076
 Quadrupole moment (field-independent basis, Debye-Ang):
   XX=            -30.5547   YY=            -33.1664   ZZ=              2.5083
   XY=              0.0092   XZ=             -8.9536   YZ=             -0.0470
 Traceless Quadrupole moment (field-independent basis, Debye-Ang):
   XX=            -10.1504   YY=            -12.7621   ZZ=             22.9126
   XY=              0.0092   XZ=             -8.9536   YZ=             -0.0470
 Octapole moment (field-independent basis, Debye-Ang**2):
  XXX=            -39.4207  YYY=             -0.0100  ZZZ=            114.0507  XYY=             -9.3957
  XXY=             -0.0106  XXZ=              8.4603  XZZ=            -27.5593  YZZ=             -0.0960
  YYZ=              3.7096  XYZ=              0.0361
 Hexadecapole moment (field-independent basis, Debye-Ang**3):
 XXXX=           -319.1514 YYYY=           -143.8096 ZZZZ=            208.2510 XXXY=              0.0195
 XXXZ=            -10.2989 YYYX=              0.0014 YYYZ=             -0.0525 ZZZX=            -93.7041
 ZZZY=             -0.3065 XXYY=            -61.8261 XXZZ=            -42.5923 YYZZ=            -34.3173
 XXYZ=             -0.0529 YYXZ=             -0.4243 ZZXY=              0.0754
 N-N= 2.522575962331D+02 E-N=-1.312451173945D+03  KE= 3.456619347087D+02
 No NMR shielding tensors so no spin-rotation constants.
 Leave Link  601 at Mon May 16 16:56:15 2022, MaxMem=  2147483648 cpu:         3.3
 (Enter /gpfs/runtime/opt/gaussian/g09-D01/g09/l701.exe)
 Compute integral first derivatives.
 ... and contract with generalized density number  0.
 R6Disp: Adding Grimme-D3 dispersion energy 1st derivatives to the gradient.
 D1PCM: PCM CHGder 1st derivatives, ID1Alg=3 FixD1E=F DoIter=F DoCFld=F I1PDM=0.
 GePol: Maximum number of non-zero 1st derivatives   =     316
 Leave Link  701 at Mon May 16 16:56:18 2022, MaxMem=  2147483648 cpu:        12.3
 (Enter /gpfs/runtime/opt/gaussian/g09-D01/g09/l702.exe)
 L702 exits ... SP integral derivatives will be done elsewhere.
 Leave Link  702 at Mon May 16 16:56:18 2022, MaxMem=  2147483648 cpu:         0.1
 (Enter /gpfs/runtime/opt/gaussian/g09-D01/g09/l703.exe)
 Compute integral first derivatives, UseDBF=F ICtDFT=           0.
 Integral derivatives from FoFJK, PRISM(SPDF).
 Calling FoFJK, ICntrl=      2127 FMM=F ISym2X=0 I1Cent= 0 IOpClX= 0 NMat=1 NMatS=1 NMatT=0.
 FoFJK:  IHMeth= 1 ICntrl=    2127 DoSepK=F KAlg= 0 I1Cent=   0 FoldK=F
 IRaf=         0 NMat=   1 IRICut=       1 DoRegI=T DoRafI=F ISym2E= 0.
 FoFCou: FMM=F IPFlag=           0 FMFlag=      100000 FMFlg1=         800
         NFxFlg=           0 DoJE=F BraDBF=F KetDBF=F FulRan=T
         wScrn=  0.000000 ICntrl=    2127 IOpCl=  0 I1Cent=           0 NGrid=           0
         NMat0=    1 NMatS0=      1 NMatT0=    0 NMatD0=    1 NMtDS0=    0 NMtDT0=    0
 Symmetry not used in FoFCou.
 Leave Link  703 at Mon May 16 16:56:21 2022, MaxMem=  2147483648 cpu:        11.3
 (Enter /gpfs/runtime/opt/gaussian/g09-D01/g09/l716.exe)
 Dipole        =-4.04663877D+00-4.34114203D-03 4.67069399D+00
 ***** Axes restored to original set *****
 -------------------------------------------------------------------
 Center     Atomic                   Forces (Hartrees/Bohr)
 Number     Number              X              Y              Z
 -------------------------------------------------------------------
      1        8           0.029658800    0.000002402   -0.000724441
      2        6          -0.036482929    0.000004124   -0.004657916
      3        8          -0.015981523    0.022220126   -0.000761753
      4        6           0.026036880   -0.008150078    0.001468008
      5        6           0.026029610    0.008155322    0.002153614
      6        8          -0.015986183   -0.022210122   -0.001318564
      7        1          -0.008652671    0.010850431   -0.000408073
      8        1          -0.008654938   -0.010851156   -0.000300390
      9        3           0.004032954   -0.000021048    0.004549516
 -------------------------------------------------------------------
 Cartesian Forces:  Max     0.036482929 RMS     0.014466873
 Leave Link  716 at Mon May 16 16:56:21 2022, MaxMem=  2147483648 cpu:         0.2
 (Enter /gpfs/runtime/opt/gaussian/g09-D01/g09/l103.exe)

 GradGradGradGradGradGradGradGradGradGradGradGradGradGradGradGradGradGrad
 Berny optimization.
 FormGI is forming the generalized inverse of G from B-inverse, IUseBI=4.
 Internal  Forces:  Max     0.029679717 RMS     0.007075499
 Search for a local minimum.
 Step number   1 out of a maximum of   60
 All quantities printed in internal units (Hartrees-Bohrs-Radians)
 RMS Force = .70755D-02 SwitMx=.10000D-02 MixMth= 1
 Mixed Optimization -- RFO/linear search
 Second derivative matrix not updated -- first step.
 ITU=  0
     Eigenvalues ---    0.01680   0.01710   0.01781   0.02259   0.02473
     Eigenvalues ---    0.05031   0.06336   0.07456   0.07623   0.08888
     Eigenvalues ---    0.11014   0.21506   0.22561   0.35990   0.35990
     Eigenvalues ---    0.46170   0.46866   0.51865   0.52842   0.56633
     Eigenvalues ---    0.97314
 RFO step:  Lambda=-9.11741415D-03 EMin= 1.68007962D-02
 Linear search not attempted -- first point.
 Iteration  1 RMS(Cart)=  0.04484624 RMS(Int)=  0.00154464
 Iteration  2 RMS(Cart)=  0.00125665 RMS(Int)=  0.00056466
 Iteration  3 RMS(Cart)=  0.00000096 RMS(Int)=  0.00056466
 ITry= 1 IFail=0 DXMaxC= 1.63D-01 DCOld= 1.00D+10 DXMaxT= 3.00D-01 DXLimC= 3.00D+00 Rises=F
 Variable       Old X    -DE/DX   Delta X   Delta X   Delta X     New X
                                 (Linear)    (Quad)   (Total)
    R1        2.29734  -0.02968   0.00000  -0.03022  -0.03022   2.26712
    R2        2.53737   0.01014   0.00000   0.01552   0.01553   2.55290
    R3        2.53738   0.01014   0.00000   0.01551   0.01552   2.55290
    R4        6.18779   0.00430   0.00000   0.16703   0.16673   6.35452
    R5        2.56151   0.01726   0.00000   0.03766   0.03789   2.59940
    R6        6.10839   0.00357   0.00000   0.07743   0.07790   6.18629
    R7        2.50087   0.01433   0.00000   0.02507   0.02491   2.52577
    R8        2.04097  -0.00063   0.00000  -0.00171  -0.00171   2.03926
    R9        5.99126  -0.00194   0.00000  -0.04141  -0.04184   5.94942
   R10        2.56152   0.01726   0.00000   0.03765   0.03790   2.59942
   R11        2.04097  -0.00063   0.00000  -0.00170  -0.00170   2.03927
   R12        5.99555  -0.00211   0.00000  -0.04673  -0.04717   5.94839
   R13        6.10576   0.00367   0.00000   0.08148   0.08201   6.18777
    A1        2.20111  -0.00342   0.00000  -0.00870  -0.00903   2.19208
    A2        2.20111  -0.00341   0.00000  -0.00872  -0.00900   2.19211
    A3        1.98021   0.00247   0.00000   0.01855   0.01794   1.99815
    A4        1.88095   0.00682   0.00000   0.01719   0.01653   1.89748
    A5        1.88375  -0.00373   0.00000  -0.00911  -0.00872   1.87503
    A6        1.88816   0.00032   0.00000   0.00048   0.00030   1.88846
    A7        2.19754  -0.00704   0.00000  -0.07826  -0.07865   2.11889
    A8        2.19748   0.00672   0.00000   0.07777   0.07811   2.27559
    A9        1.89630   0.00079   0.00000  -0.01237  -0.01137   1.88493
   A10        1.88815   0.00029   0.00000   0.00044   0.00021   1.88836
   A11        2.19748   0.00673   0.00000   0.07785   0.07813   2.27562
   A12        2.19754  -0.00702   0.00000  -0.07819  -0.07865   2.11890
   A13        1.89818   0.00075   0.00000  -0.01323  -0.01242   1.88576
   A14        1.88374  -0.00371   0.00000  -0.00909  -0.00864   1.87509
   A15        0.69004   0.00271   0.00000  -0.00382  -0.00443   0.68561
   A16        0.68982   0.00272   0.00000  -0.00351  -0.00414   0.68568
   A17        0.69098   0.00447   0.00000   0.00671   0.00637   0.69735
   A18        0.68457   0.00420   0.00000  -0.00044  -0.00066   0.68391
   A19        0.69138   0.00445   0.00000   0.00614   0.00578   0.69717
    D1        3.14123  -0.00012   0.00000  -0.03177  -0.03154   3.10968
    D2        0.00424   0.00121   0.00000   0.01950   0.02037   0.02461
    D3        3.13939   0.00024   0.00000   0.03524   0.03496  -3.10884
    D4       -0.00681  -0.00108   0.00000  -0.01603  -0.01696  -0.02377
    D5       -2.80755   0.00096   0.00000   0.00748   0.00783  -2.79972
    D6        2.80770  -0.00097   0.00000  -0.00766  -0.00804   2.79966
    D7        0.00001  -0.00086   0.00000  -0.01560  -0.01598  -0.01597
    D8        3.14103  -0.00045   0.00000  -0.03805  -0.03665   3.10439
    D9       -0.00422   0.00019   0.00000   0.00567   0.00562   0.00140
   D10        3.14102   0.00038   0.00000  -0.02406  -0.02498   3.11605
   D11        3.13794  -0.00021   0.00000   0.02817   0.02884  -3.11640
   D12        0.00000  -0.00003   0.00000  -0.00156  -0.00175  -0.00176
   D13        2.80767  -0.00653   0.00000  -0.07476  -0.07442   2.73325
   D14       -2.81601  -0.00721   0.00000  -0.08613  -0.08572  -2.90173
   D15        0.00686   0.00053   0.00000   0.00636   0.00684   0.01370
   D16       -3.13838   0.00039   0.00000   0.03651   0.03454  -3.10385
   D17       -2.80761   0.00652   0.00000   0.07465   0.07428  -2.73333
   D18        2.81594   0.00721   0.00000   0.08616   0.08576   2.90170
         Item               Value     Threshold  Converged?
 Maximum Force            0.029680     0.000450     NO 
 RMS     Force            0.007075     0.000300     NO 
 Maximum Displacement     0.163388     0.001800     NO 
 RMS     Displacement     0.044837     0.001200     NO 
 Predicted change in Energy=-5.035346D-03
 Lowest energy point so far.  Saving SCF results.
 GradGradGradGradGradGradGradGradGradGradGradGradGradGradGradGradGradGrad

 Leave Link  103 at Mon May 16 16:56:29 2022, MaxMem=  2147483648 cpu:        28.3
 (Enter /gpfs/runtime/opt/gaussian/g09-D01/g09/l202.exe)
                          Input orientation:                          
 ---------------------------------------------------------------------
 Center     Atomic      Atomic             Coordinates (Angstroms)
 Number     Number       Type             X           Y           Z
 ---------------------------------------------------------------------
      1          8           0       -1.922792    0.000140   -0.041080
      2          6           0       -0.723082    0.000146   -0.041913
      3          8           0        0.063291    1.098014   -0.005459
      4          6           0        1.369752    0.668397    0.021047
      5          6           0        1.369787   -0.668184    0.021137
      6          8           0        0.063332   -1.097747   -0.007139
      7          1           0        2.191751    1.367562    0.018102
      8          1           0        2.191801   -1.367329    0.016843
      9          3           0        0.672761   -0.000999    3.017362
 ---------------------------------------------------------------------
                    Distance matrix (angstroms):
                    1          2          3          4          5
     1  O    0.000000
     2  C    1.199711   0.000000
     3  O    2.269607   1.350934   0.000000
     4  C    3.360249   2.197834   1.375541   0.000000
     5  C    3.360299   2.197895   2.197065   1.336582   0.000000
     6  O    2.269625   1.350935   2.195761   2.196996   1.375554
     7  H    4.336220   3.220198   2.145589   1.079130   2.195426
     8  H    4.336266   3.220246   3.257141   2.195442   1.079133
     9  Li   4.011354   3.362669   3.273642   3.148300   3.147752
                    6          7          8          9
     6  O    0.000000
     7  H    3.257077   0.000000
     8  H    2.145607   2.734891   0.000000
     9  Li   3.274426   3.629855   3.630077   0.000000
 Stoichiometry    C3H2LiO3(1+)
 Framework group  C1[X(C3H2LiO3)]
 Deg. of freedom    21
 Full point group                 C1      NOp   1
 RotChk:  IX=0 Diff= 6.89D-02
 Largest Abelian subgroup         C1      NOp   1
 Largest concise Abelian subgroup C1      NOp   1
                         Standard orientation:                         
 ---------------------------------------------------------------------
 Center     Atomic      Atomic             Coordinates (Angstroms)
 Number     Number       Type             X           Y           Z
 ---------------------------------------------------------------------
      1          8           0        2.021105   -0.000148    0.093684
      2          6           0        0.836454    0.000137   -0.095804
      3          8           0        0.054195   -1.097606   -0.185539
      4          6           0       -1.240203   -0.667725   -0.364005
      5          6           0       -1.240327    0.668854   -0.361400
      6          8           0        0.054296    1.098154   -0.183062
      7          1           0       -2.051472   -1.366684   -0.497499
      8          1           0       -2.051476    1.368204   -0.493592
      9          3           0       -1.023121   -0.004106    2.705893
 ---------------------------------------------------------------------
 Rotational constants (GHZ):      4.6403813      2.8097211      2.7664084
 Leave Link  202 at Mon May 16 16:56:29 2022, MaxMem=  2147483648 cpu:         0.3
 (Enter /gpfs/runtime/opt/gaussian/g09-D01/g09/l301.exe)
 Standard basis: 6-31+G(d,p) (6D, 7F)
 Ernie: Thresh=  0.10000D-02 Tol=  0.10000D-05 Strict=F.
 There are   143 symmetry adapted cartesian basis functions of A   symmetry.
 There are   143 symmetry adapted basis functions of A   symmetry.
   143 basis functions,   238 primitive gaussians,   143 cartesian basis functions
    23 alpha electrons       23 beta electrons
       nuclear repulsion energy       250.9288562299 Hartrees.
 IExCor= 4336 DFT=T Ex+Corr=M062X ExCW=0 ScaHFX=  0.540000
 ScaDFX=  1.000000  1.000000  1.000000  1.000000 ScalE2=  1.000000  1.000000
 IRadAn=      0 IRanWt=     -1 IRanGd=            0 ICorTp=0 IEmpDi=131
 NAtoms=    9 NActive=    9 NUniq=    9 SFac= 1.00D+00 NAtFMM=   60 NAOKFM=F Big=F
 Integral buffers will be    131072 words long.
 Raffenetti 2 integral format.
 Two-electron integral symmetry is turned on.
 R6Disp:  Grimme-D3 Dispersion energy=       -0.0000842522 Hartrees.
 Nuclear repulsion after empirical dispersion term =      250.9287719777 Hartrees.
 ------------------------------------------------------------------------------
 Polarizable Continuum Model (PCM)
 =================================
 Model                : PCM (using non-symmetric T matrix).
 Atomic radii         : SMD-Coulomb.
 Polarization charges : Total charges.
 Charge compensation  : None.
 Solution method      : On-the-fly selection.
 Cavity type          : VdW (van der Waals Surface) (Alpha=1.000).
 Cavity algorithm     : GePol (No added spheres)
                        Default sphere list used, NSphG=    9.
                        Lebedev-Laikov grids with approx.  5.0 points / Ang**2.
                        Smoothing algorithm: Karplus/York (Gamma=1.0000).
                        Polarization charges: spherical gaussians, with
                                              point-specific exponents (IZeta= 3).
                        Self-potential: point-specific (ISelfS= 7).
                        Self-field    : sphere-specific E.n sum rule (ISelfD= 2).
 1st derivatives      : Analytical E(r).r(x)/FMM algorithm (CHGder, D1EAlg=3).
                        Cavity 1st derivative terms included.
 Solvent              : DiMethylSulfoxide, Eps=  46.826000 Eps(inf)=   2.007889
 ------------------------------------------------------------------------------
 Spheres list:
 ISph  on   Nord     Re0    Alpha      Xe            Ye            Ze
    1   O      1    2.2940  1.000      2.021105     -0.000148      0.093684
    2   C      2    1.8500  1.000      0.836454      0.000137     -0.095804
    3   O      3    2.2940  1.000      0.054195     -1.097606     -0.185539
    4   C      4    1.8500  1.000     -1.240203     -0.667725     -0.364005
    5   C      5    1.8500  1.000     -1.240327      0.668854     -0.361400
    6   O      6    2.2940  1.000      0.054296      1.098154     -0.183062
    7   H      7    1.2000  1.000     -2.051472     -1.366684     -0.497499
    8   H      8    1.2000  1.000     -2.051476      1.368204     -0.493592
    9  Li      9    1.8200  1.000     -1.023121     -0.004106      2.705893
 ------------------------------------------------------------------------------
 GePol: Number of generator spheres                  =       9
 GePol: Total number of spheres                      =       9
 GePol: Number of exposed spheres                    =       9 (100.00%)
 GePol: Number of points                             =    1188
 GePol: Average weight of points                     =       0.13
 GePol: Minimum weight of points                     =   0.32D-07
 GePol: Maximum weight of points                     =    0.17992
 GePol: Number of points with low weight             =      34
 GePol: Fraction of low-weight points (<1% of avg)   =       2.86%
 GePol: Cavity surface area                          =    154.884 Ang**2
 GePol: Cavity volume                                =    144.965 Ang**3
 ------------------------------------------------------------------------------
 Atomic radii for non-electrostatic terms: SMD-CDS.
 ------------------------------------------------------------------------------
 PCM non-electrostatic energy =         0.0005498203 Hartrees.
 Nuclear repulsion after PCM non-electrostatic terms =      250.9293217980 Hartrees.
 Leave Link  301 at Mon May 16 16:56:30 2022, MaxMem=  2147483648 cpu:         0.5
 (Enter /gpfs/runtime/opt/gaussian/g09-D01/g09/l302.exe)
 NPDir=0 NMtPBC=     1 NCelOv=     1 NCel=       1 NClECP=     1 NCelD=      1
         NCelK=      1 NCelE2=     1 NClLst=     1 CellRange=     0.0.
 One-electron integrals computed using PRISM.
 NBasis=   143 RedAO= T EigKep=  6.34D-05  NBF=   143
 NBsUse=   143 1.00D-06 EigRej= -1.00D+00 NBFU=   143
 Precomputing XC quadrature grid using
 IXCGrd= 4 IRadAn=           0 IRanWt=          -1 IRanGd=           0 AccXCQ= 0.00D+00.
 Generated NRdTot=       0 NPtTot=           0 NUsed=           0 NTot=          32
 NSgBfM=   143   143   143   143   143 MxSgAt=     9 MxSgA2=     9.
 Leave Link  302 at Mon May 16 16:56:32 2022, MaxMem=  2147483648 cpu:         6.6
 (Enter /gpfs/runtime/opt/gaussian/g09-D01/g09/l303.exe)
 DipDrv:  MaxL=1.
 Leave Link  303 at Mon May 16 16:56:32 2022, MaxMem=  2147483648 cpu:         0.8
 (Enter /gpfs/runtime/opt/gaussian/g09-D01/g09/l401.exe)
 Initial guess from the checkpoint file:  "/gpfs/data/yqi27/cgu13/CHEM1560Q/Gaussian/872-36-6/inp3/Gau-230693.chk"
 B after Tr=     0.000000    0.000000    0.000000
         Rot=    0.999771   -0.000240    0.021384    0.000025 Ang=  -2.45 deg.
 Guess basis will be translated and rotated to current coordinates.
 JPrj=2 DoOrth=T DoCkMO=T.
 Generating alternative initial guess.
 ExpMin= 7.40D-03 ExpMax= 5.48D+03 ExpMxC= 8.25D+02 IAcc=3 IRadAn=         5 AccDes= 0.00D+00
 Harris functional with IExCor= 1009 and IRadAn=       5 diagonalized for initial guess.
 HarFok:  IExCor= 1009 AccDes= 0.00D+00 IRadAn=         5 IDoV= 1 UseB2=F ITyADJ=14
 ICtDFT=  3500011 ScaDFX=  1.000000  1.000000  1.000000  1.000000
 FoFCou: FMM=F IPFlag=           0 FMFlag=      100000 FMFlg1=           0
         NFxFlg=           0 DoJE=T BraDBF=F KetDBF=T FulRan=T
         wScrn=  0.000000 ICntrl=     500 IOpCl=  0 I1Cent=   200000004 NGrid=           0
         NMat0=    1 NMatS0=      1 NMatT0=    0 NMatD0=    1 NMtDS0=    0 NMtDT0=    0
 Petite list used in FoFCou.
 Harris En= -348.214664717265    
 Leave Link  401 at Mon May 16 16:56:36 2022, MaxMem=  2147483648 cpu:        13.4
 (Enter /gpfs/runtime/opt/gaussian/g09-D01/g09/l502.exe)
 Closed shell SCF:
 Using DIIS extrapolation, IDIIS=  1040.
 Integral symmetry usage will be decided dynamically.
 Keep R1 ints in memory in canonical form, NReq=57635019.
 IVT=       82101 IEndB=       82101 NGot=  2147483648 MDV=  2094392592
 LenX=  2094392592 LenY=  2094371702
 Requested convergence on RMS density matrix=1.00D-08 within 128 cycles.
 Requested convergence on MAX density matrix=1.00D-06.
 Requested convergence on             energy=1.00D-06.
 No special actions if energy rises.
 FoFCou: FMM=F IPFlag=           0 FMFlag=           0 FMFlg1=           0
         NFxFlg=           0 DoJE=F BraDBF=F KetDBF=F FulRan=T
         wScrn=  0.000000 ICntrl=     600 IOpCl=  0 I1Cent=           0 NGrid=           0
         NMat0=    1 NMatS0=  10296 NMatT0=    0 NMatD0=    1 NMtDS0=    0 NMtDT0=    0
 Symmetry not used in FoFCou.

 Cycle   1  Pass 1  IDiag  1:
 Inv3:  Mode=1 IEnd=     4234032.
 Iteration    1 A*A^-1 deviation from unit magnitude is 5.55D-15 for     58.
 Iteration    1 A*A^-1 deviation from orthogonality  is 6.73D-15 for    537    117.
 Iteration    1 A^-1*A deviation from unit magnitude is 5.00D-15 for    367.
 Iteration    1 A^-1*A deviation from orthogonality  is 6.12D-15 for    669    648.
 E= -348.479936605126    
 DIIS: error= 2.59D-03 at cycle   1 NSaved=   1.
 NSaved= 1 IEnMin= 1 EnMin= -348.479936605126     IErMin= 1 ErrMin= 2.59D-03
 ErrMax= 2.59D-03  0.00D+00 EMaxC= 1.00D-01 BMatC= 1.25D-03 BMatP= 1.25D-03
 IDIUse=3 WtCom= 9.74D-01 WtEn= 2.59D-02
 Coeff-Com:  0.100D+01
 Coeff-En:   0.100D+01
 Coeff:      0.100D+01
 Gap=     0.528 Goal=   None    Shift=    0.000
 GapD=    0.528 DampG=2.000 DampE=1.000 DampFc=2.0000 IDamp=-1.
 RMSDP=6.19D-04 MaxDP=1.29D-02              OVMax= 1.14D-02

 Cycle   2  Pass 1  IDiag  1:
 E= -348.481787953051     Delta-E=       -0.001851347925 Rises=F Damp=F
 DIIS: error= 6.00D-04 at cycle   2 NSaved=   2.
 NSaved= 2 IEnMin= 2 EnMin= -348.481787953051     IErMin= 2 ErrMin= 6.00D-04
 ErrMax= 6.00D-04  0.00D+00 EMaxC= 1.00D-01 BMatC= 8.68D-05 BMatP= 1.25D-03
 IDIUse=3 WtCom= 9.94D-01 WtEn= 6.00D-03
 Coeff-Com:  0.720D-02 0.993D+00
 Coeff-En:   0.000D+00 0.100D+01
 Coeff:      0.716D-02 0.993D+00
 Gap=     0.299 Goal=   None    Shift=    0.000
 RMSDP=1.41D-04 MaxDP=3.25D-03 DE=-1.85D-03 OVMax= 7.24D-03

 Cycle   3  Pass 1  IDiag  1:
 E= -348.481840333715     Delta-E=       -0.000052380665 Rises=F Damp=F
 DIIS: error= 6.65D-04 at cycle   3 NSaved=   3.
 NSaved= 3 IEnMin= 3 EnMin= -348.481840333715     IErMin= 2 ErrMin= 6.00D-04
 ErrMax= 6.65D-04  0.00D+00 EMaxC= 1.00D-01 BMatC= 9.85D-05 BMatP= 8.68D-05
 IDIUse=3 WtCom= 2.79D-01 WtEn= 7.21D-01
 Coeff-Com: -0.712D-01 0.549D+00 0.522D+00
 Coeff-En:   0.000D+00 0.250D+00 0.750D+00
 Coeff:     -0.199D-01 0.333D+00 0.687D+00
 Gap=     0.298 Goal=   None    Shift=    0.000
 RMSDP=9.60D-05 MaxDP=2.87D-03 DE=-5.24D-05 OVMax= 3.63D-03

 Cycle   4  Pass 1  IDiag  1:
 E= -348.481883490254     Delta-E=       -0.000043156539 Rises=F Damp=F
 DIIS: error= 4.09D-04 at cycle   4 NSaved=   4.
 NSaved= 4 IEnMin= 4 EnMin= -348.481883490254     IErMin= 4 ErrMin= 4.09D-04
 ErrMax= 4.09D-04  0.00D+00 EMaxC= 1.00D-01 BMatC= 4.32D-05 BMatP= 8.68D-05
 IDIUse=3 WtCom= 9.96D-01 WtEn= 4.09D-03
 Coeff-Com: -0.252D-01 0.451D-01 0.418D+00 0.562D+00
 Coeff-En:   0.000D+00 0.000D+00 0.310D+00 0.690D+00
 Coeff:     -0.251D-01 0.449D-01 0.418D+00 0.562D+00
 Gap=     0.298 Goal=   None    Shift=    0.000
 RMSDP=3.84D-05 MaxDP=1.45D-03 DE=-4.32D-05 OVMax= 1.85D-03

 Cycle   5  Pass 1  IDiag  1:
 E= -348.481915887349     Delta-E=       -0.000032397094 Rises=F Damp=F
 DIIS: error= 4.85D-05 at cycle   5 NSaved=   5.
 NSaved= 5 IEnMin= 5 EnMin= -348.481915887349     IErMin= 5 ErrMin= 4.85D-05
 ErrMax= 4.85D-05  0.00D+00 EMaxC= 1.00D-01 BMatC= 4.15D-07 BMatP= 4.32D-05
 IDIUse=1 WtCom= 1.00D+00 WtEn= 0.00D+00
 Coeff-Com: -0.681D-03-0.415D-01 0.813D-01 0.193D+00 0.767D+00
 Coeff:     -0.681D-03-0.415D-01 0.813D-01 0.193D+00 0.767D+00
 Gap=     0.298 Goal=   None    Shift=    0.000
 RMSDP=6.76D-06 MaxDP=1.17D-04 DE=-3.24D-05 OVMax= 3.69D-04

 Cycle   6  Pass 1  IDiag  1:
 E= -348.481916354545     Delta-E=       -0.000000467197 Rises=F Damp=F
 DIIS: error= 1.53D-05 at cycle   6 NSaved=   6.
 NSaved= 6 IEnMin= 6 EnMin= -348.481916354545     IErMin= 6 ErrMin= 1.53D-05
 ErrMax= 1.53D-05  0.00D+00 EMaxC= 1.00D-01 BMatC= 4.06D-08 BMatP= 4.15D-07
 IDIUse=1 WtCom= 1.00D+00 WtEn= 0.00D+00
 Coeff-Com:  0.238D-02-0.176D-01-0.251D-01 0.286D-02 0.224D+00 0.813D+00
 Coeff:      0.238D-02-0.176D-01-0.251D-01 0.286D-02 0.224D+00 0.813D+00
 Gap=     0.298 Goal=   None    Shift=    0.000
 RMSDP=2.40D-06 MaxDP=3.90D-05 DE=-4.67D-07 OVMax= 1.14D-04

 Cycle   7  Pass 1  IDiag  1:
 E= -348.481916404823     Delta-E=       -0.000000050277 Rises=F Damp=F
 DIIS: error= 5.67D-06 at cycle   7 NSaved=   7.
 NSaved= 7 IEnMin= 7 EnMin= -348.481916404823     IErMin= 7 ErrMin= 5.67D-06
 ErrMax= 5.67D-06  0.00D+00 EMaxC= 1.00D-01 BMatC= 4.79D-09 BMatP= 4.06D-08
 IDIUse=1 WtCom= 1.00D+00 WtEn= 0.00D+00
 Coeff-Com:  0.815D-03-0.238D-02-0.152D-01-0.109D-01 0.152D-01 0.261D+00
 Coeff-Com:  0.751D+00
 Coeff:      0.815D-03-0.238D-02-0.152D-01-0.109D-01 0.152D-01 0.261D+00
 Coeff:      0.751D+00
 Gap=     0.298 Goal=   None    Shift=    0.000
 RMSDP=8.31D-07 MaxDP=1.37D-05 DE=-5.03D-08 OVMax= 4.01D-05

 Cycle   8  Pass 1  IDiag  1:
 E= -348.481916410397     Delta-E=       -0.000000005574 Rises=F Damp=F
 DIIS: error= 1.85D-06 at cycle   8 NSaved=   8.
 NSaved= 8 IEnMin= 8 EnMin= -348.481916410397     IErMin= 8 ErrMin= 1.85D-06
 ErrMax= 1.85D-06  0.00D+00 EMaxC= 1.00D-01 BMatC= 7.52D-10 BMatP= 4.79D-09
 IDIUse=1 WtCom= 1.00D+00 WtEn= 0.00D+00
 Coeff-Com: -0.592D-04 0.189D-02-0.216D-02-0.380D-02-0.285D-01-0.424D-01
 Coeff-Com:  0.261D+00 0.814D+00
 Coeff:     -0.592D-04 0.189D-02-0.216D-02-0.380D-02-0.285D-01-0.424D-01
 Coeff:      0.261D+00 0.814D+00
 Gap=     0.298 Goal=   None    Shift=    0.000
 RMSDP=3.38D-07 MaxDP=6.00D-06 DE=-5.57D-09 OVMax= 1.77D-05

 Cycle   9  Pass 1  IDiag  1:
 E= -348.481916411252     Delta-E=       -0.000000000856 Rises=F Damp=F
 DIIS: error= 5.11D-07 at cycle   9 NSaved=   9.
 NSaved= 9 IEnMin= 9 EnMin= -348.481916411252     IErMin= 9 ErrMin= 5.11D-07
 ErrMax= 5.11D-07  0.00D+00 EMaxC= 1.00D-01 BMatC= 6.31D-11 BMatP= 7.52D-10
 IDIUse=1 WtCom= 1.00D+00 WtEn= 0.00D+00
 Coeff-Com: -0.116D-03 0.101D-02 0.909D-03-0.116D-04-0.128D-01-0.477D-01
 Coeff-Com:  0.172D-01 0.294D+00 0.747D+00
 Coeff:     -0.116D-03 0.101D-02 0.909D-03-0.116D-04-0.128D-01-0.477D-01
 Coeff:      0.172D-01 0.294D+00 0.747D+00
 Gap=     0.298 Goal=   None    Shift=    0.000
 RMSDP=1.14D-07 MaxDP=2.64D-06 DE=-8.56D-10 OVMax= 4.09D-06

 Cycle  10  Pass 1  IDiag  1:
 E= -348.481916411327     Delta-E=       -0.000000000075 Rises=F Damp=F
 DIIS: error= 8.52D-08 at cycle  10 NSaved=  10.
 NSaved=10 IEnMin=10 EnMin= -348.481916411327     IErMin=10 ErrMin= 8.52D-08
 ErrMax= 8.52D-08  0.00D+00 EMaxC= 1.00D-01 BMatC= 2.28D-12 BMatP= 6.31D-11
 IDIUse=1 WtCom= 1.00D+00 WtEn= 0.00D+00
 Coeff-Com: -0.454D-05-0.558D-04 0.236D-03 0.331D-03 0.989D-03-0.655D-03
 Coeff-Com: -0.194D-01-0.410D-01 0.982D-01 0.961D+00
 Coeff:     -0.454D-05-0.558D-04 0.236D-03 0.331D-03 0.989D-03-0.655D-03
 Coeff:     -0.194D-01-0.410D-01 0.982D-01 0.961D+00
 Gap=     0.298 Goal=   None    Shift=    0.000
 RMSDP=2.82D-08 MaxDP=6.00D-07 DE=-7.47D-11 OVMax= 1.21D-06

 Cycle  11  Pass 1  IDiag  1:
 E= -348.481916411333     Delta-E=       -0.000000000006 Rises=F Damp=F
 DIIS: error= 4.23D-08 at cycle  11 NSaved=  11.
 NSaved=11 IEnMin=11 EnMin= -348.481916411333     IErMin=11 ErrMin= 4.23D-08
 ErrMax= 4.23D-08  0.00D+00 EMaxC= 1.00D-01 BMatC= 5.85D-13 BMatP= 2.28D-12
 IDIUse=1 WtCom= 1.00D+00 WtEn= 0.00D+00
 Coeff-Com:  0.305D-05-0.741D-04 0.745D-04 0.174D-03 0.107D-02 0.184D-02
 Coeff-Com: -0.105D-01-0.332D-01 0.154D-01 0.471D+00 0.554D+00
 Coeff:      0.305D-05-0.741D-04 0.745D-04 0.174D-03 0.107D-02 0.184D-02
 Coeff:     -0.105D-01-0.332D-01 0.154D-01 0.471D+00 0.554D+00
 Gap=     0.298 Goal=   None    Shift=    0.000
 RMSDP=6.32D-09 MaxDP=1.41D-07 DE=-6.14D-12 OVMax= 2.78D-07

 Error on total polarization charges =  0.00785
 SCF Done:  E(RM062X) =  -348.481916411     A.U. after   11 cycles
            NFock= 11  Conv=0.63D-08     -V/T= 2.0084
 KE= 3.455633529550D+02 PE=-1.309844311071D+03 EE= 3.648697199063D+02
 SMD-CDS (non-electrostatic) energy       (kcal/mol) =       0.35
 (included in total energy above)
 Leave Link  502 at Mon May 16 16:56:55 2022, MaxMem=  2147483648 cpu:       104.8
 (Enter /gpfs/runtime/opt/gaussian/g09-D01/g09/l701.exe)
 Compute integral first derivatives.
 ... and contract with generalized density number  0.
 R6Disp: Adding Grimme-D3 dispersion energy 1st derivatives to the gradient.
 D1PCM: PCM CHGder 1st derivatives, ID1Alg=3 FixD1E=F DoIter=F DoCFld=F I1PDM=0.
 GePol: Maximum number of non-zero 1st derivatives   =     319
 Leave Link  701 at Mon May 16 16:56:59 2022, MaxMem=  2147483648 cpu:        12.7
 (Enter /gpfs/runtime/opt/gaussian/g09-D01/g09/l702.exe)
 L702 exits ... SP integral derivatives will be done elsewhere.
 Leave Link  702 at Mon May 16 16:57:00 2022, MaxMem=  2147483648 cpu:         0.1
 (Enter /gpfs/runtime/opt/gaussian/g09-D01/g09/l703.exe)
 Compute integral first derivatives, UseDBF=F ICtDFT=           0.
 Integral derivatives from FoFJK, PRISM(SPDF).
 Calling FoFJK, ICntrl=      2127 FMM=F ISym2X=0 I1Cent= 0 IOpClX= 0 NMat=1 NMatS=1 NMatT=0.
 FoFJK:  IHMeth= 1 ICntrl=    2127 DoSepK=F KAlg= 0 I1Cent=   0 FoldK=F
 IRaf=         0 NMat=   1 IRICut=       1 DoRegI=T DoRafI=F ISym2E= 0.
 FoFCou: FMM=F IPFlag=           0 FMFlag=      100000 FMFlg1=         800
         NFxFlg=           0 DoJE=F BraDBF=F KetDBF=F FulRan=T
         wScrn=  0.000000 ICntrl=    2127 IOpCl=  0 I1Cent=           0 NGrid=           0
         NMat0=    1 NMatS0=      1 NMatT0=    0 NMatD0=    1 NMtDS0=    0 NMtDT0=    0
 Symmetry not used in FoFCou.
 Leave Link  703 at Mon May 16 16:57:03 2022, MaxMem=  2147483648 cpu:        11.0
 (Enter /gpfs/runtime/opt/gaussian/g09-D01/g09/l716.exe)
 Dipole        =-4.36351465D+00-6.90217631D-03 4.50004676D+00
 ***** Axes restored to original set *****
 -------------------------------------------------------------------
 Center     Atomic                   Forces (Hartrees/Bohr)
 Number     Number              X              Y              Z
 -------------------------------------------------------------------
      1        8           0.005633056   -0.000014502   -0.003116064
      2        6          -0.012852031   -0.000022750    0.003832042
      3        8          -0.002729891    0.005070866   -0.003329707
      4        6           0.009351075   -0.012600759    0.001241815
      5        6           0.009300650    0.012622260    0.000946923
      6        8          -0.002744427   -0.005049525   -0.003196915
      7        1          -0.004077617    0.004238250    0.000165124
      8        1          -0.004077937   -0.004235041    0.000184776
      9        3           0.002197122   -0.000008800    0.003272005
 -------------------------------------------------------------------
 Cartesian Forces:  Max     0.012852031 RMS     0.005735005
 Leave Link  716 at Mon May 16 16:57:03 2022, MaxMem=  2147483648 cpu:         0.1
 (Enter /gpfs/runtime/opt/gaussian/g09-D01/g09/l103.exe)

 GradGradGradGradGradGradGradGradGradGradGradGradGradGradGradGradGradGrad
 Berny optimization.
 Using GEDIIS/GDIIS optimizer.
 FormGI is forming the generalized inverse of G from B-inverse, IUseBI=4.
 Internal  Forces:  Max     0.005609916 RMS     0.002106360
 Search for a local minimum.
 Step number   2 out of a maximum of   60
 All quantities printed in internal units (Hartrees-Bohrs-Radians)
 RMS Force = .21064D-02 SwitMx=.10000D-02 MixMth= 1
 Mixed Optimization -- RFO/linear search
 Update second derivatives using D2CorX and points    1    2
 DE= -6.05D-03 DEPred=-5.04D-03 R= 1.20D+00
 TightC=F SS=  1.41D+00  RLast= 3.29D-01 DXNew= 5.0454D-01 9.8805D-01
 Trust test= 1.20D+00 RLast= 3.29D-01 DXMaxT set to 5.05D-01
 ITU=  1  0
 Use linear search instead of GDIIS.
     Eigenvalues ---    0.01639   0.01750   0.01791   0.02312   0.02483
     Eigenvalues ---    0.05036   0.05385   0.06363   0.07657   0.08887
     Eigenvalues ---    0.10897   0.21583   0.23290   0.35981   0.35990
     Eigenvalues ---    0.46260   0.47385   0.48794   0.52885   0.59804
     Eigenvalues ---    0.96525
 RFO step:  Lambda=-1.58478910D-03 EMin= 1.63930112D-02
 Quartic linear search produced a step of  0.50346.
 Iteration  1 RMS(Cart)=  0.03585781 RMS(Int)=  0.00132125
 Iteration  2 RMS(Cart)=  0.00092567 RMS(Int)=  0.00083788
 Iteration  3 RMS(Cart)=  0.00000085 RMS(Int)=  0.00083788
 ITry= 1 IFail=0 DXMaxC= 1.38D-01 DCOld= 1.00D+10 DXMaxT= 5.05D-01 DXLimC= 3.00D+00 Rises=F
 Variable       Old X    -DE/DX   Delta X   Delta X   Delta X     New X
                                 (Linear)    (Quad)   (Total)
    R1        2.26712  -0.00561  -0.01521   0.00186  -0.01336   2.25377
    R2        2.55290   0.00305   0.00782   0.00218   0.00982   2.56272
    R3        2.55290   0.00300   0.00781   0.00205   0.00970   2.56259
    R4        6.35452   0.00263   0.08394   0.03968   0.12394   6.47846
    R5        2.59940   0.00493   0.01907   0.00431   0.02371   2.62311
    R6        6.18629   0.00174   0.03922   0.07996   0.11927   6.30555
    R7        2.52577  -0.00382   0.01254  -0.01931  -0.00684   2.51893
    R8        2.03926  -0.00038  -0.00086  -0.00096  -0.00182   2.03744
    R9        5.94942  -0.00100  -0.02106   0.00222  -0.01917   5.93025
   R10        2.59942   0.00492   0.01908   0.00424   0.02366   2.62308
   R11        2.03927  -0.00038  -0.00086  -0.00097  -0.00182   2.03744
   R12        5.94839  -0.00096  -0.02375   0.00711  -0.01699   5.93140
   R13        6.18777   0.00171   0.04129   0.07543   0.11683   6.30460
    A1        2.19208   0.00077  -0.00455   0.01008   0.00500   2.19708
    A2        2.19211   0.00075  -0.00453   0.00992   0.00488   2.19699
    A3        1.99815   0.00262   0.00903   0.03285   0.04121   2.03937
    A4        1.89748  -0.00137   0.00832  -0.01552  -0.00836   1.88912
    A5        1.87503  -0.00002  -0.00439   0.00941   0.00497   1.88000
    A6        1.88846   0.00071   0.00015  -0.00071  -0.00102   1.88745
    A7        2.11889  -0.00292  -0.03960  -0.02403  -0.06426   2.05463
    A8        2.27559   0.00220   0.03932   0.02416   0.06384   2.33943
    A9        1.88493  -0.00013  -0.00572  -0.00668  -0.01107   1.87385
   A10        1.88836   0.00075   0.00011  -0.00051  -0.00084   1.88753
   A11        2.27562   0.00218   0.03934   0.02416   0.06387   2.33949
   A12        2.11890  -0.00294  -0.03959  -0.02412  -0.06435   2.05455
   A13        1.88576  -0.00014  -0.00625  -0.00633  -0.01127   1.87450
   A14        1.87509  -0.00003  -0.00435   0.00928   0.00492   1.88001
   A15        0.68561   0.00096  -0.00223   0.00040  -0.00255   0.68306
   A16        0.68568   0.00095  -0.00208   0.00013  -0.00268   0.68300
   A17        0.69735   0.00028   0.00321  -0.00816  -0.00547   0.69188
   A18        0.68391   0.00029  -0.00033  -0.01231  -0.01275   0.67116
   A19        0.69717   0.00030   0.00291  -0.00756  -0.00515   0.69202
    D1        3.10968   0.00161  -0.01588   0.01350  -0.00210   3.10758
    D2        0.02461  -0.00119   0.01026  -0.07043  -0.05899  -0.03438
    D3       -3.10884  -0.00164   0.01760  -0.01681   0.00052  -3.10832
    D4       -0.02377   0.00115  -0.00854   0.06713   0.05740   0.03364
    D5       -2.79972  -0.00090   0.00394  -0.00303   0.00128  -2.79844
    D6        2.79966   0.00089  -0.00405   0.00319  -0.00124   2.79842
    D7       -0.01597   0.00074  -0.00804   0.04645   0.03795   0.02197
    D8        3.10439   0.00041  -0.01845   0.02119   0.00562   3.11001
    D9        0.00140  -0.00005   0.00283  -0.00545  -0.00262  -0.00122
   D10        3.11605  -0.00043  -0.01258  -0.02655  -0.04047   3.07558
   D11       -3.11640   0.00040   0.01452   0.02369   0.03955  -3.07685
   D12       -0.00176   0.00003  -0.00088   0.00259   0.00170  -0.00005
   D13        2.73325  -0.00329  -0.03747  -0.02839  -0.06548   2.66777
   D14       -2.90173  -0.00323  -0.04316  -0.03019  -0.07255  -2.97427
   D15        0.01370  -0.00066   0.00344  -0.03760  -0.03367  -0.01997
   D16       -3.10385  -0.00041   0.01739  -0.01963  -0.00512  -3.10896
   D17       -2.73333   0.00331   0.03739   0.02869   0.06568  -2.66765
   D18        2.90170   0.00323   0.04318   0.03024   0.07262   2.97431
         Item               Value     Threshold  Converged?
 Maximum Force            0.005610     0.000450     NO 
 RMS     Force            0.002106     0.000300     NO 
 Maximum Displacement     0.138084     0.001800     NO 
 RMS     Displacement     0.035941     0.001200     NO 
 Predicted change in Energy=-1.544399D-03
 Lowest energy point so far.  Saving SCF results.
 GradGradGradGradGradGradGradGradGradGradGradGradGradGradGradGradGradGrad

 Leave Link  103 at Mon May 16 16:57:13 2022, MaxMem=  2147483648 cpu:        34.8
 (Enter /gpfs/runtime/opt/gaussian/g09-D01/g09/l202.exe)
                          Input orientation:                          
 ---------------------------------------------------------------------
 Center     Atomic      Atomic             Coordinates (Angstroms)
 Number     Number       Type             X           Y           Z
 ---------------------------------------------------------------------
      1          8           0       -1.925136    0.000063   -0.077794
      2          6           0       -0.732799    0.000110   -0.050808
      3          8           0        0.061842    1.098894   -0.032984
      4          6           0        1.378773    0.666597    0.041863
      5          6           0        1.378766   -0.666365    0.040795
      6          8           0        0.061786   -1.098633   -0.033131
      7          1           0        2.153798    1.416093    0.035544
      8          1           0        2.153739   -1.415903    0.033234
      9          3           0        0.745832   -0.000856    3.042181
 ---------------------------------------------------------------------
                    Distance matrix (angstroms):
                    1          2          3          4          5
     1  O    0.000000
     2  C    1.192643   0.000000
     3  O    2.271017   1.356133   0.000000
     4  C    3.372596   2.216197   1.388089   0.000000
     5  C    3.372530   2.216142   2.203604   1.332963   0.000000
     6  O    2.270900   1.356065   2.197527   2.203660   1.388077
     7  H    4.319223   3.216350   2.116977   1.078169   2.222011
     8  H    4.319087   3.216248   3.271791   2.222038   1.078168
     9  Li   4.107106   3.428254   3.336754   3.138154   3.138761
                    6          7          8          9
     6  O    0.000000
     7  H    3.271862   0.000000
     8  H    2.116915   2.831997   0.000000
     9  Li   3.336252   3.609706   3.610861   0.000000
 Stoichiometry    C3H2LiO3(1+)
 Framework group  C1[X(C3H2LiO3)]
 Deg. of freedom    21
 Full point group                 C1      NOp   1
 RotChk:  IX=3 Diff= 5.50D-02
 Largest Abelian subgroup         C1      NOp   1
 Largest concise Abelian subgroup C1      NOp   1
                         Standard orientation:                         
 ---------------------------------------------------------------------
 Center     Atomic      Atomic             Coordinates (Angstroms)
 Number     Number       Type             X           Y           Z
 ---------------------------------------------------------------------
      1          8           0        2.026789   -0.000019    0.146028
      2          6           0        0.852181   -0.000043   -0.060598
      3          8           0        0.069400   -1.098812   -0.198646
      4          6           0       -1.236758   -0.666498   -0.382621
      5          6           0       -1.236556    0.666464   -0.383446
      6          8           0        0.069461    1.098715   -0.198416
      7          1           0       -1.995586   -1.415976   -0.540453
      8          1           0       -1.995105    1.416020   -0.542238
      9          3           0       -1.202574    0.000447    2.683652
 ---------------------------------------------------------------------
 Rotational constants (GHZ):      4.6348647      2.7600042      2.7244036
 Leave Link  202 at Mon May 16 16:57:14 2022, MaxMem=  2147483648 cpu:         0.4
 (Enter /gpfs/runtime/opt/gaussian/g09-D01/g09/l301.exe)
 Standard basis: 6-31+G(d,p) (6D, 7F)
 Ernie: Thresh=  0.10000D-02 Tol=  0.10000D-05 Strict=F.
 There are   143 symmetry adapted cartesian basis functions of A   symmetry.
 There are   143 symmetry adapted basis functions of A   symmetry.
   143 basis functions,   238 primitive gaussians,   143 cartesian basis functions
    23 alpha electrons       23 beta electrons
       nuclear repulsion energy       250.0845247241 Hartrees.
 IExCor= 4336 DFT=T Ex+Corr=M062X ExCW=0 ScaHFX=  0.540000
 ScaDFX=  1.000000  1.000000  1.000000  1.000000 ScalE2=  1.000000  1.000000
 IRadAn=      0 IRanWt=     -1 IRanGd=            0 ICorTp=0 IEmpDi=131
 NAtoms=    9 NActive=    9 NUniq=    9 SFac= 1.00D+00 NAtFMM=   60 NAOKFM=F Big=F
 Integral buffers will be    131072 words long.
 Raffenetti 2 integral format.
 Two-electron integral symmetry is turned on.
 R6Disp:  Grimme-D3 Dispersion energy=       -0.0000905350 Hartrees.
 Nuclear repulsion after empirical dispersion term =      250.0844341891 Hartrees.
 ------------------------------------------------------------------------------
 Polarizable Continuum Model (PCM)
 =================================
 Model                : PCM (using non-symmetric T matrix).
 Atomic radii         : SMD-Coulomb.
 Polarization charges : Total charges.
 Charge compensation  : None.
 Solution method      : On-the-fly selection.
 Cavity type          : VdW (van der Waals Surface) (Alpha=1.000).
 Cavity algorithm     : GePol (No added spheres)
                        Default sphere list used, NSphG=    9.
                        Lebedev-Laikov grids with approx.  5.0 points / Ang**2.
                        Smoothing algorithm: Karplus/York (Gamma=1.0000).
                        Polarization charges: spherical gaussians, with
                                              point-specific exponents (IZeta= 3).
                        Self-potential: point-specific (ISelfS= 7).
                        Self-field    : sphere-specific E.n sum rule (ISelfD= 2).
 1st derivatives      : Analytical E(r).r(x)/FMM algorithm (CHGder, D1EAlg=3).
                        Cavity 1st derivative terms included.
 Solvent              : DiMethylSulfoxide, Eps=  46.826000 Eps(inf)=   2.007889
 ------------------------------------------------------------------------------
 Spheres list:
 ISph  on   Nord     Re0    Alpha      Xe            Ye            Ze
    1   O      1    2.2940  1.000      2.026789     -0.000019      0.146028
    2   C      2    1.8500  1.000      0.852181     -0.000043     -0.060598
    3   O      3    2.2940  1.000      0.069400     -1.098812     -0.198646
    4   C      4    1.8500  1.000     -1.236758     -0.666498     -0.382621
    5   C      5    1.8500  1.000     -1.236556      0.666464     -0.383446
    6   O      6    2.2940  1.000      0.069461      1.098715     -0.198416
    7   H      7    1.2000  1.000     -1.995586     -1.415976     -0.540453
    8   H      8    1.2000  1.000     -1.995105      1.416020     -0.542238
    9  Li      9    1.8200  1.000     -1.202574      0.000447      2.683652
 ------------------------------------------------------------------------------
 GePol: Number of generator spheres                  =       9
 GePol: Total number of spheres                      =       9
[...]
     26 -0.125794D-05  0.313776D-02 -0.217756D-02  0.149147D-02 -0.907980D-03
     27 -0.201553D-02  0.140198D-02  0.234839D-02 -0.147650D-02 -0.480541D-02
               11            12            13            14            15 
     11  0.935600D+00
     12  0.314049D-01  0.141565D+00
     13 -0.196620D-01  0.431778D-02  0.621769D+00
     14 -0.543607D+00  0.991452D-02 -0.166138D+00  0.935643D+00
     15 -0.103234D-01 -0.538213D-01  0.120262D+00 -0.307306D-01  0.141453D+00
     16 -0.501772D-01 -0.275719D-01 -0.226150D+00 -0.790337D-01 -0.421302D-01
     17 -0.532964D-01 -0.304162D-02 -0.436882D-01 -0.126636D+00 -0.125718D-01
     18 -0.137398D-01  0.940682D-02 -0.471409D-01 -0.210532D-01 -0.623834D-01
     19 -0.152036D+00 -0.389094D-01  0.830612D-02  0.179446D-02  0.114662D-02
     20 -0.218199D+00 -0.321389D-01 -0.174540D-01 -0.176496D-02 -0.384086D-02
     21 -0.275476D-01 -0.358234D-01  0.594678D-04 -0.814562D-03  0.933179D-03
     22 -0.179606D-02  0.114496D-02 -0.206468D+00  0.152063D+00 -0.387450D-01
     23 -0.176979D-02  0.383682D-02  0.164175D+00 -0.218256D+00  0.319476D-01
     24  0.822939D-03  0.933509D-03 -0.344555D-01  0.273429D-01 -0.357412D-01
     25  0.113733D-02 -0.139913D-03 -0.312380D-02 -0.115294D-02 -0.143483D-03
     26 -0.460283D-03 -0.124666D-02  0.890733D-03 -0.461130D-03  0.124952D-02
     27  0.368739D-02 -0.338335D-02 -0.480082D-02 -0.368546D-02 -0.335462D-02
               16            17            18            19            20 
     16  0.475299D+00
     17  0.637493D-02  0.459203D+00
     18  0.106153D+00  0.415884D-02  0.937550D-01
     19  0.521151D-02  0.226135D-02 -0.577666D-03  0.216445D+00
     20 -0.365533D-03 -0.307484D-02  0.000000D+00  0.163084D+00  0.210503D+00
     21  0.111734D-04 -0.129919D-03  0.100244D-01  0.411658D-01  0.308731D-01
     22 -0.193579D-01  0.197658D-01 -0.387030D-02 -0.342796D-03  0.336757D-03
     23 -0.146310D-01  0.157116D-01 -0.285500D-02 -0.337499D-03 -0.165655D-03
     24 -0.566928D-02  0.584621D-02 -0.267245D-02  0.550262D-03 -0.292932D-04
     25 -0.192677D-02 -0.194859D-02 -0.221546D-02 -0.636690D-04 -0.236752D-03
     26 -0.314419D-02 -0.217697D-02 -0.148678D-02 -0.727293D-03 -0.582068D-03
     27  0.139891D-02 -0.234537D-02 -0.148390D-02  0.159456D-02  0.112412D-02
               21            22            23            24            25 
     21  0.306918D-01
     22  0.549758D-03  0.216423D+00
     23  0.320556D-04 -0.163110D+00  0.210567D+00
     24 -0.246986D-02  0.409869D-01 -0.306815D-01  0.306045D-01
     25  0.816497D-04 -0.641900D-04  0.238400D-03  0.851012D-04  0.110024D-01
     26  0.980105D-03  0.727439D-03 -0.583238D-03 -0.981510D-03  0.241533D-04
     27 -0.133616D-02  0.159493D-02 -0.112416D-02 -0.133279D-02  0.544558D-02
               26            27 
     26  0.741987D-02
     27 -0.537353D-05  0.134911D-01
 FormGI is forming the generalized inverse of G from B-inverse, IUseBI=4.
 Leave Link  716 at Mon May 16 17:16:49 2022, MaxMem=  2147483648 cpu:         2.4
 (Enter /gpfs/runtime/opt/gaussian/g09-D01/g09/l103.exe)

 GradGradGradGradGradGradGradGradGradGradGradGradGradGradGradGradGradGrad
 Berny optimization.
 Red2BG is reusing G-inverse.
 Internal  Forces:  Max     0.000035716 RMS     0.000009380
 Search for a local minimum.
 Step number   1 out of a maximum of    2
 All quantities printed in internal units (Hartrees-Bohrs-Radians)
 Second derivative matrix not updated -- analytic derivatives used.
 ITU=  0
     Eigenvalues ---    0.00352   0.00622   0.01305   0.01432   0.01736
     Eigenvalues ---    0.02097   0.04137   0.04976   0.05309   0.06301
     Eigenvalues ---    0.07251   0.20527   0.23642   0.27833   0.33243
     Eigenvalues ---    0.36242   0.38410   0.38419   0.38821   0.54041
     Eigenvalues ---    0.94677
 Angle between quadratic step and forces=  66.62 degrees.
 Linear search not attempted -- first point.
 Iteration  1 RMS(Cart)=  0.00032965 RMS(Int)=  0.00000009
 Iteration  2 RMS(Cart)=  0.00000005 RMS(Int)=  0.00000005
 ITry= 1 IFail=0 DXMaxC= 9.34D-04 DCOld= 1.00D+10 DXMaxT= 3.00D-01 DXLimC= 3.00D+00 Rises=F
 Variable       Old X    -DE/DX   Delta X   Delta X   Delta X     New X
                                 (Linear)    (Quad)   (Total)
    R1        2.25911  -0.00001   0.00000  -0.00001  -0.00001   2.25910
    R2        2.55851  -0.00001   0.00000  -0.00005  -0.00005   2.55846
    R3        2.55847  -0.00001   0.00000   0.00000   0.00000   2.55847
    R4        7.81421   0.00001   0.00000  -0.00002  -0.00002   7.81419
    R5        2.60966   0.00004   0.00000   0.00014   0.00014   2.60980
    R6        7.01201   0.00000   0.00000  -0.00129  -0.00129   7.01072
    R7        2.52049   0.00000   0.00000   0.00001   0.00001   2.52050
    R8        2.04093   0.00002   0.00000   0.00007   0.00007   2.04099
    R9        5.42143  -0.00001   0.00000  -0.00177  -0.00177   5.41966
   R10        2.60974   0.00002   0.00000   0.00005   0.00005   2.60978
   R11        2.04093   0.00002   0.00000   0.00006   0.00006   2.04099
   R12        5.42114  -0.00001   0.00000  -0.00076  -0.00076   5.42038
   R13        7.01146   0.00001   0.00000   0.00020   0.00020   7.01166
    A1        2.19552   0.00000   0.00000   0.00003   0.00003   2.19555
    A2        2.19558   0.00000   0.00000  -0.00004  -0.00004   2.19554
    A3        2.47527   0.00000   0.00000   0.00044   0.00044   2.47571
    A4        1.89207   0.00000   0.00000   0.00001   0.00001   1.89208
    A5        1.87797   0.00000   0.00000   0.00001   0.00001   1.87798
    A6        1.88840  -0.00001   0.00000  -0.00003  -0.00003   1.88836
    A7        2.06112   0.00000   0.00000  -0.00007  -0.00007   2.06105
    A8        2.33237   0.00000   0.00000   0.00008   0.00008   2.33245
    A9        1.47482   0.00001   0.00000   0.00000   0.00000   1.47482
   A10        1.88838  -0.00001   0.00000  -0.00001  -0.00001   1.88837
   A11        2.33241   0.00000   0.00000   0.00004   0.00004   2.33245
   A12        2.06109   0.00000   0.00000  -0.00004  -0.00004   2.06105
   A13        1.47492   0.00001   0.00000   0.00023   0.00023   1.47515
   A14        1.87796   0.00001   0.00000   0.00002   0.00002   1.87798
   A15        0.53104   0.00000   0.00000  -0.00009  -0.00009   0.53095
   A16        0.53102   0.00000   0.00000  -0.00003  -0.00003   0.53099
   A17        0.63324   0.00000   0.00000   0.00016   0.00016   0.63340
   A18        0.60092   0.00000   0.00000   0.00004   0.00004   0.60097
   A19        0.63332   0.00000   0.00000  -0.00004  -0.00004   0.63328
    D1        3.13374   0.00000   0.00000   0.00022   0.00022   3.13396
    D2       -0.00287   0.00001   0.00000   0.00033   0.00033  -0.00254
    D3       -3.13382   0.00000   0.00000  -0.00013  -0.00013  -3.13395
    D4        0.00279   0.00000   0.00000  -0.00024  -0.00024   0.00255
    D5       -2.66465   0.00000   0.00000   0.00017   0.00017  -2.66448
    D6        2.66474   0.00000   0.00000  -0.00018  -0.00018   2.66455
    D7        0.00185  -0.00001   0.00000  -0.00030  -0.00030   0.00155
    D8        3.09602  -0.00001   0.00000  -0.00078  -0.00078   3.09525
    D9       -0.00013   0.00001   0.00000   0.00015   0.00015   0.00002
   D10        3.08341   0.00000   0.00000  -0.00008  -0.00008   3.08333
   D11       -3.08392   0.00001   0.00000   0.00074   0.00074  -3.08318
   D12       -0.00037   0.00000   0.00000   0.00050   0.00050   0.00013
   D13        2.73387   0.00000   0.00000   0.00011   0.00011   2.73399
   D14       -2.97166  -0.00001   0.00000   0.00015   0.00015  -2.97151
   D15       -0.00163   0.00000   0.00000   0.00005   0.00005  -0.00158
   D16       -3.09561   0.00000   0.00000   0.00024   0.00024  -3.09537
   D17       -2.73390   0.00000   0.00000  -0.00017  -0.00017  -2.73408
   D18        2.97152   0.00001   0.00000   0.00006   0.00006   2.97158
         Item               Value     Threshold  Converged?
 Maximum Force            0.000036     0.000450     YES
 RMS     Force            0.000009     0.000300     YES
 Maximum Displacement     0.000934     0.001800     YES
 RMS     Displacement     0.000330     0.001200     YES
 Predicted change in Energy=-3.653018D-08
 Optimization completed.
    -- Stationary point found.
                           ----------------------------
                           !   Optimized Parameters   !
                           ! (Angstroms and Degrees)  !
 --------------------------                            --------------------------
 ! Name  Definition              Value          Derivative Info.                !
 --------------------------------------------------------------------------------
 ! R1    R(1,2)                  1.1955         -DE/DX =    0.0                 !
 ! R2    R(2,3)                  1.3539         -DE/DX =    0.0                 !
 ! R3    R(2,6)                  1.3539         -DE/DX =    0.0                 !
 ! R4    R(2,9)                  4.1351         -DE/DX =    0.0                 !
 ! R5    R(3,4)                  1.381          -DE/DX =    0.0                 !
 ! R6    R(3,9)                  3.7106         -DE/DX =    0.0                 !
 ! R7    R(4,5)                  1.3338         -DE/DX =    0.0                 !
 ! R8    R(4,7)                  1.08           -DE/DX =    0.0                 !
 ! R9    R(4,9)                  2.8689         -DE/DX =    0.0                 !
 ! R10   R(5,6)                  1.381          -DE/DX =    0.0                 !
 ! R11   R(5,8)                  1.08           -DE/DX =    0.0                 !
 ! R12   R(5,9)                  2.8687         -DE/DX =    0.0                 !
 ! R13   R(6,9)                  3.7103         -DE/DX =    0.0                 !
 ! A1    A(1,2,3)              125.7942         -DE/DX =    0.0                 !
 ! A2    A(1,2,6)              125.7976         -DE/DX =    0.0                 !
 ! A3    A(1,2,9)              141.8227         -DE/DX =    0.0                 !
 ! A4    A(3,2,6)              108.4075         -DE/DX =    0.0                 !
 ! A5    A(2,3,4)              107.5999         -DE/DX =    0.0                 !
 ! A6    A(3,4,5)              108.1971         -DE/DX =    0.0                 !
 ! A7    A(3,4,7)              118.0933         -DE/DX =    0.0                 !
 ! A8    A(5,4,7)              133.635          -DE/DX =    0.0                 !
 ! A9    A(7,4,9)               84.501          -DE/DX =    0.0                 !
 ! A10   A(4,5,6)              108.196          -DE/DX =    0.0                 !
 ! A11   A(4,5,8)              133.6373         -DE/DX =    0.0                 !
 ! A12   A(6,5,8)              118.0915         -DE/DX =    0.0                 !
 ! A13   A(8,5,9)               84.5065         -DE/DX =    0.0                 !
 ! A14   A(2,6,5)              107.5993         -DE/DX =    0.0                 !
 ! A15   A(2,9,4)               30.4263         -DE/DX =    0.0                 !
 ! A16   A(2,9,5)               30.4254         -DE/DX =    0.0                 !
 ! A17   A(3,9,5)               36.2823         -DE/DX =    0.0                 !
 ! A18   A(3,9,6)               34.4303         -DE/DX =    0.0                 !
 ! A19   A(4,9,6)               36.2864         -DE/DX =    0.0                 !
 ! D1    D(1,2,3,4)            179.5499         -DE/DX =    0.0                 !
 ! D2    D(6,2,3,4)             -0.1642         -DE/DX =    0.0                 !
 ! D3    D(1,2,6,5)           -179.5545         -DE/DX =    0.0                 !
 ! D4    D(3,2,6,5)              0.1596         -DE/DX =    0.0                 !
 ! D5    D(1,2,9,4)           -152.6729         -DE/DX =    0.0                 !
 ! D6    D(1,2,9,5)            152.6781         -DE/DX =    0.0                 !
 ! D7    D(2,3,4,5)              0.1059         -DE/DX =    0.0                 !
 ! D8    D(2,3,4,7)            177.3892         -DE/DX =    0.0                 !
 ! D9    D(3,4,5,6)             -0.0076         -DE/DX =    0.0                 !
 ! D10   D(3,4,5,8)            176.6666         -DE/DX =    0.0                 !
 ! D11   D(7,4,5,6)           -176.6956         -DE/DX =    0.0                 !
 ! D12   D(7,4,5,8)             -0.0214         -DE/DX =    0.0                 !
 ! D13   D(7,4,9,2)            156.6395         -DE/DX =    0.0                 !
 ! D14   D(7,4,9,6)           -170.2637         -DE/DX =    0.0                 !
 ! D15   D(4,5,6,2)             -0.0935         -DE/DX =    0.0                 !
 ! D16   D(8,5,6,2)           -177.3656         -DE/DX =    0.0                 !
 ! D17   D(8,5,9,2)           -156.6412         -DE/DX =    0.0                 !
 ! D18   D(8,5,9,3)            170.2557         -DE/DX =    0.0                 !
 --------------------------------------------------------------------------------
 GradGradGradGradGradGradGradGradGradGradGradGradGradGradGradGradGradGrad

 Leave Link  103 at Mon May 16 17:16:49 2022, MaxMem=  2147483648 cpu:         0.3
 (Enter /gpfs/runtime/opt/gaussian/g09-D01/g09/l9999.exe)
 1\1\GINC-NODE1714\Freq\RM062X\6-31+G(d,p)\C3H2Li1O3(1+)\ROOT\16-May-20
 22\0\\#P Geom=AllCheck Guess=TCheck SCRF=Check GenChk RM062X/6-31+G(d,
 p) Freq\\872-36-6\\1,1\O,-1.9701428426,0.0004812239,-0.6041166017\C,-0
 .8112340205,0.0003012163,-0.3107301112\O,-0.0442852858,1.0983607049,-0
 .1129505626\C,1.2252284859,0.6669589887,0.2176804888\C,1.2252083764,-0
 .6668290122,0.2171838193\O,-0.0444062863,-1.0979327738,-0.1136114764\H
 ,1.9917660257,1.4121646079,0.3710202198\H,1.9917542034,-1.4122056019,0
 .3696768868\Li,1.7127113436,-0.0012993538,2.9647473372\\Version=EM64L-
 G09RevD.01\State=1-A\HF=-348.4894194\RMSD=4.438e-09\RMSF=3.987e-05\Zer
 oPoint=0.0529909\Thermal=0.0589104\Dipole=5.4396175,-0.0028221,5.76157
 78\DipoleDeriv=-1.9646538,0.0002375,-0.4031651,0.0002215,-0.5332169,0.
 0000495,-0.3668482,0.0000655,-0.5927703,3.1425063,-0.0003291,0.6862212
 ,-0.000335,1.2573119,0.0000784,0.6328039,0.0000624,0.7567597,-1.319081
 4,0.2367496,-0.3275574,-0.607451,-0.7913308,-0.1483406,-0.2904212,0.06
 9299,-0.283887,0.5811693,-0.3516755,0.1945371,-0.3406202,0.2632794,-0.
 2212106,0.1286193,-0.2451262,-0.1550371,0.5812175,0.3515187,0.194637,0
 .3404999,0.2627847,0.2214675,0.1288116,0.2455553,-0.154873,-1.3190368,
 -0.2364564,-0.3276849,0.6077155,-0.7913795,0.1479913,-0.2900345,-0.069
 5512,-0.2838707,0.1636706,0.0549786,-0.0393313,0.0279767,0.210808,0.00
 9304,-0.0184792,0.0443914,0.2620557,0.1636879,-0.0549815,-0.0393856,-0
 .0279918,0.2108791,-0.0093424,-0.0184591,-0.044544,0.2620584,0.9705203
 ,-0.0000419,0.0617289,-0.0000157,0.910864,0.0000029,0.0940073,-0.00015
 22,1.1895643\Polar=62.055733,-0.004017,52.0050827,9.1587686,0.0050092,
 35.6857589\PG=C01 [X(C3H2Li1O3)]\NImag=0\\0.86898116,-0.00011768,0.097
 29655,0.21132977,-0.00001007,0.08999823,-0.73855275,0.00009587,-0.1668
 0364,1.13264637,0.00009779,-0.09451192,0.00001827,-0.00014426,0.498443
 93,-0.16731357,0.00001860,-0.12163265,0.23122381,0.00005095,0.27074958
 ,-0.06491751,-0.06158825,-0.02174901,-0.13028867,-0.04619898,-0.013122
 17,0.47536814,-0.04725523,0.00482489,-0.01212389,-0.02140086,-0.213631
 75,-0.00481954,-0.00648723,0.45919099,-0.02135450,-0.01556549,0.012683
 89,-0.01319997,-0.01077113,-0.07501923,0.10617275,-0.00395058,0.093738
 82,0.00050354,0.00778549,-0.00016003,-0.06346956,-0.07130515,-0.017704
 94,-0.22621495,0.04375276,-0.04713969,0.62186261,-0.00555880,-0.007933
 38,-0.00189330,-0.01704044,0.01635715,-0.00342905,0.07909130,-0.126691
 55,0.02101805,0.16604147,0.93560036,-0.00220984,0.00297451,0.00196825,
 -0.01499326,-0.02423410,0.00150877,-0.04211181,0.01253060,-0.06235390,
 0.12047336,0.03140485,0.14156467,0.00050370,-0.00778630,-0.00016554,-0
 .06345977,0.07132146,-0.01765311,-0.05963252,0.01834147,-0.02042345,-0
 .07174416,-0.01966200,0.00431778,0.62176907,0.00555615,-0.00793075,0.0
 0188716,0.01705791,0.01632253,0.00343632,0.05020300,-0.05330982,0.0137
 0293,0.01965005,-0.54360716,0.00991452,-0.16613772,0.93564297,-0.00220
 768,-0.00298063,0.00196685,-0.01497588,0.02424403,0.00152955,-0.027550
 07,0.00300617,0.00941832,0.00434371,-0.01032339,-0.05382135,0.12026199
 ,-0.03073063,0.14145263,-0.06490025,0.06161053,-0.02170786,-0.13029488
 ,0.04622784,-0.01310293,0.02175616,0.03313838,0.00261900,-0.05963696,-
 0.05017717,-0.02757189,-0.22615019,-0.07903374,-0.04213021,0.47529930,
 0.04727623,0.00479425,0.01212103,0.02143227,-0.21367786,0.00474548,-0.
 03315328,-0.08084649,-0.00878280,-0.01832043,-0.05329635,-0.00304162,-
 0.04368823,-0.12663612,-0.01257184,0.00637493,0.45920278,-0.02132393,0
 .01556223,0.01270079,-0.01319066,0.01069495,-0.07500596,0.00260429,0.0
 0871917,0.01565862,-0.02043850,-0.01373984,0.00940682,-0.04714085,-0.0
 2105318,-0.06238336,0.10615308,0.00415884,0.09375498,-0.00122468,-0.00
 185652,-0.00055693,-0.00248224,0.00758153,-0.00052636,-0.01936162,-0.0
 1976422,-0.00388689,-0.20648743,-0.15203564,-0.03890938,0.00830612,0.0
 0179446,0.00114662,0.00521151,0.00226135,-0.00057767,0.21644480,0.0016
 8209,0.00166557,0.00052605,0.00247267,-0.00409911,0.00061660,0.0146320
 0,0.01571656,0.00286962,-0.16415108,-0.21819899,-0.03213893,-0.0174539
 8,-0.00176496,-0.00384086,-0.00036553,-0.00307484,-0.00000039,0.163083
 83,0.21050349,-0.00031361,-0.00075969,0.00071127,-0.00125984,0.0031992
 7,-0.00005573,-0.00565686,-0.00583270,-0.00267550,-0.03463752,-0.02754
 764,-0.03582342,0.00005947,-0.00081456,0.00093318,0.00001117,-0.000129
 92,0.01002445,0.04116578,0.03087308,0.03069178,-0.00122438,0.00185707,
 -0.00055624,-0.00248504,-0.00758160,-0.00052919,0.00521289,-0.00226232
 ,-0.00057584,0.00830661,-0.00179606,0.00114496,-0.20646846,0.15206284,
 -0.03874500,-0.01935792,0.01976576,-0.00387030,-0.00034280,0.00033676,
 0.00054976,0.21642329,-0.00168116,0.00166532,-0.00052572,-0.00247191,-
 0.00409489,-0.00061811,0.00036368,-0.00307528,-0.00001206,0.01745486,-
 0.00176979,0.00383682,0.16417457,-0.21825555,0.03194764,-0.01463104,0.
 01571160,-0.00285500,-0.00033750,-0.00016565,0.00003206,-0.16310989,0.
 21056748,-0.00031406,0.00076102,0.00071159,-0.00126340,-0.00320319,-0.
 00005881,0.00001091,0.00012237,0.01002549,0.00006901,0.00082294,0.0009
 3351,-0.03445546,0.02734292,-0.03574121,-0.00566928,0.00584621,-0.0026
 7245,0.00055026,-0.00002929,-0.00246986,0.04098693,-0.03068146,0.03060
 454,0.00083116,-0.00000020,0.00036948,-0.00161345,0.00000136,-0.001271
 55,-0.00192193,0.00193724,-0.00221141,-0.00311970,0.00113733,-0.000139
 91,-0.00312380,-0.00115294,-0.00014348,-0.00192677,-0.00194859,-0.0022
 1546,-0.00006367,-0.00023675,0.00008165,-0.00006419,0.00023840,0.00008
 510,0.01100235,0.00000061,0.00012947,0.00000048,-0.00000124,-0.0011080
 8,-0.00000126,0.00313776,-0.00217756,0.00149147,-0.00090798,-0.0004602
 8,-0.00124666,0.00089073,-0.00046113,0.00124952,-0.00314419,-0.0021769
 7,-0.00148678,-0.00072729,-0.00058207,0.00098011,0.00072744,-0.0005832
 4,-0.00098151,0.00002415,0.00741987,0.00370743,-0.00000048,0.00089177,
 -0.00553716,0.00000095,-0.00201553,0.00140198,0.00234839,-0.00147650,-
 0.00480541,0.00368739,-0.00338335,-0.00480082,-0.00368546,-0.00335462,
 0.00139891,-0.00234537,-0.00148390,0.00159456,0.00112412,-0.00133616,0
 .00159493,-0.00112416,-0.00133279,0.00544558,-0.00000537,0.01349108\\-
 0.00004289,0.00000447,0.00009452,-0.00002913,-0.00001056,0.00007423,0.
 00003478,0.00000475,0.00001441,-0.00003227,0.00002803,-0.00004597,-0.0
 0001681,-0.00001435,-0.00005063,0.00001437,-0.00000263,0.00003733,-0.0
 0001351,-0.00001893,-0.00003872,-0.00001093,0.00001578,-0.00005383,0.0
 0009638,-0.00000654,-0.00003134\\\@


 ALMOST ANYTHING IS EASIER TO GET INTO THAN OUT OF.

                         -- AGNES ALLEN'S LAW FROM
                PAUL DICKSON'S "THE OFFICIAL RULES"
 Job cpu time:       0 days  0 hours  4 minutes 59.6 seconds.
 File lengths (MBytes):  RWF=    616 Int=      0 D2E=      0 Chk=     12 Scr=      8
 Normal termination of Gaussian 09 at Mon May 16 17:16:49 2022.
