 Entering Gaussian System, Link 0=g09
 Initial command:
 /gpfs/runtime/opt/gaussian/g09-D01/g09/l1.exe "/gpfs/data/yqi27/cgu13/CHEM1560Q/Gaussian/4427-96-7/inp4/Gau-122397.inp" -scrdir="/gpfs/data/yqi27/cgu13/CHEM1560Q/Gaussian/4427-96-7/inp4/"
 Entering Link 1 = /gpfs/runtime/opt/gaussian/g09-D01/g09/l1.exe PID=    122398.
  
 Copyright (c) 1988,1990,1992,1993,1995,1998,2003,2009,2013,
            Gaussian, Inc.  All Rights Reserved.
  
 This is part of the Gaussian(R) 09 program.  It is based on
 the Gaussian(R) 03 system (copyright 2003, Gaussian, Inc.),
 the Gaussian(R) 98 system (copyright 1998, Gaussian, Inc.),
 the Gaussian(R) 94 system (copyright 1995, Gaussian, Inc.),
 the Gaussian 92(TM) system (copyright 1992, Gaussian, Inc.),
 the Gaussian 90(TM) system (copyright 1990, Gaussian, Inc.),
 the Gaussian 88(TM) system (copyright 1988, Gaussian, Inc.),
 the Gaussian 86(TM) system (copyright 1986, Carnegie Mellon
 University), and the Gaussian 82(TM) system (copyright 1983,
 Carnegie Mellon University). Gaussian is a federally registered
 trademark of Gaussian, Inc.
  
 This software contains proprietary and confidential information,
 including trade secrets, belonging to Gaussian, Inc.
  
 This software is provided under written license and may be
 used, copied, transmitted, or stored only in accord with that
 written license.
  
 The following legend is applicable only to US Government
 contracts under FAR:
  
                    RESTRICTED RIGHTS LEGEND
  
 Use, reproduction and disclosure by the US Government is
 subject to restrictions as set forth in subparagraphs (a)
 and (c) of the Commercial Computer Software - Restricted
 Rights clause in FAR 52.227-19.
  
 Gaussian, Inc.
 340 Quinnipiac St., Bldg. 40, Wallingford CT 06492
  
  
 ---------------------------------------------------------------
 Warning -- This program may not be used in any manner that
 competes with the business of Gaussian, Inc. or will provide
 assistance to any competitor of Gaussian, Inc.  The licensee
 of this program is prohibited from giving any competitor of
 Gaussian, Inc. access to this program.  By using this program,
 the user acknowledges that Gaussian, Inc. is engaged in the
 business of creating and licensing software in the field of
 computational chemistry and represents and warrants to the
 licensee that it is not a competitor of Gaussian, Inc. and that
 it will not use this program in any manner prohibited above.
 ---------------------------------------------------------------
  

 Cite this work as:
 Gaussian 09, Revision D.01,
 M. J. Frisch, G. W. Trucks, H. B. Schlegel, G. E. Scuseria, 
 M. A. Robb, J. R. Cheeseman, G. Scalmani, V. Barone, B. Mennucci, 
 G. A. Petersson, H. Nakatsuji, M. Caricato, X. Li, H. P. Hratchian, 
 A. F. Izmaylov, J. Bloino, G. Zheng, J. L. Sonnenberg, M. Hada, 
 M. Ehara, K. Toyota, R. Fukuda, J. Hasegawa, M. Ishida, T. Nakajima, 
 Y. Honda, O. Kitao, H. Nakai, T. Vreven, J. A. Montgomery, Jr., 
 J. E. Peralta, F. Ogliaro, M. Bearpark, J. J. Heyd, E. Brothers, 
 K. N. Kudin, V. N. Staroverov, T. Keith, R. Kobayashi, J. Normand, 
 K. Raghavachari, A. Rendell, J. C. Burant, S. S. Iyengar, J. Tomasi, 
 M. Cossi, N. Rega, J. M. Millam, M. Klene, J. E. Knox, J. B. Cross, 
 V. Bakken, C. Adamo, J. Jaramillo, R. Gomperts, R. E. Stratmann, 
 O. Yazyev, A. J. Austin, R. Cammi, C. Pomelli, J. W. Ochterski, 
 R. L. Martin, K. Morokuma, V. G. Zakrzewski, G. A. Voth, 
 P. Salvador, J. J. Dannenberg, S. Dapprich, A. D. Daniels, 
 O. Farkas, J. B. Foresman, J. V. Ortiz, J. Cioslowski, 
 and D. J. Fox, Gaussian, Inc., Wallingford CT, 2013.
 
 ******************************************
 Gaussian 09:  EM64L-G09RevD.01 24-Apr-2013
                16-May-2022 
 ******************************************
 %Mem=16GB
 %NProcShared=8
 Will use up to    8 processors via shared memory.
 ----------------------------------------------------------------------
 #P M062X/6-31+G** EmpiricalDispersion=GD3 SCRF(SMD,solvent=DiMethylSul
 foxide) Opt Freq
 ----------------------------------------------------------------------
 1/14=-1,18=20,19=15,26=3,38=1/1,3;
 2/9=110,12=2,17=6,18=5,40=1/2;
 3/5=1,6=6,7=111,11=2,16=1,25=1,30=1,70=32201,71=1,72=21,74=-55,124=31/1,2,3;
 4//1;
 5/5=2,38=5,53=21/2;
 6/7=2,8=2,9=2,10=2,28=1/1;
 7//1,2,3,16;
 1/14=-1,18=20,19=15,26=3/3(2);
 2/9=110/2;
 99//99;
 2/9=110/2;
 3/5=1,6=6,7=111,11=2,16=1,25=1,30=1,70=32205,71=1,72=21,74=-55,124=31/1,2,3;
 4/5=5,16=3,69=1/1;
 5/5=2,38=5,53=21/2;
 7//1,2,3,16;
 1/14=-1,18=20,19=15,26=3/3(-5);
 2/9=110/2;
 6/7=2,8=2,9=2,10=2,19=2,28=1/1;
 99/9=1/99;
 Leave Link    1 at Mon May 16 17:33:27 2022, MaxMem=  2147483648 cpu:         1.0
 (Enter /gpfs/runtime/opt/gaussian/g09-D01/g09/l101.exe)
 ---------
 4427-96-7
 ---------
 Symbolic Z-matrix:
 Charge =  1 Multiplicity = 1
 C                     3.1116    0.4034    0.0615 
 C                     1.8904    0.2228    0.4999 
 C                     0.7805   -0.0914   -0.4698 
 H                     1.1621   -0.1191   -1.4905 
 C                     0.1086   -1.4298   -0.1073 
 O                    -1.2726   -1.0622    0.1778 
 C                    -1.4177    0.2576    0.0189 
 O                    -2.472     0.8342    0.1936 
 O                    -0.2938    0.8864   -0.3519 
 H                     3.907     0.6286    0.7565 
 H                     3.3238    0.3227   -0.9943 
 H                     1.679     0.2991    1.5563 
 H                     0.1544   -2.1211   -0.9489 
 H                     0.5778   -1.867     0.774 
 Li                   -5.472    -0.2026   -0.0232 
 
 Add virtual bond connecting atoms Li15       and O8         Dist= 6.01D+00.
 NAtoms=     15 NQM=       15 NQMF=       0 NMMI=      0 NMMIF=      0
                NMic=       0 NMicF=      0.
                    Isotopes and Nuclear Properties:
 (Nuclear quadrupole moments (NQMom) in fm**2, nuclear magnetic moments (NMagM)
  in nuclear magnetons)

  Atom         1           2           3           4           5           6           7           8           9          10
 IAtWgt=          12          12          12           1          12          16          12          16          16           1
 AtmWgt=  12.0000000  12.0000000  12.0000000   1.0078250  12.0000000  15.9949146  12.0000000  15.9949146  15.9949146   1.0078250
 NucSpn=           0           0           0           1           0           0           0           0           0           1
 AtZEff=   0.0000000   0.0000000   0.0000000   0.0000000   0.0000000   0.0000000   0.0000000   0.0000000   0.0000000   0.0000000
 NQMom=    0.0000000   0.0000000   0.0000000   0.0000000   0.0000000   0.0000000   0.0000000   0.0000000   0.0000000   0.0000000
 NMagM=    0.0000000   0.0000000   0.0000000   2.7928460   0.0000000   0.0000000   0.0000000   0.0000000   0.0000000   2.7928460
 AtZNuc=   6.0000000   6.0000000   6.0000000   1.0000000   6.0000000   8.0000000   6.0000000   8.0000000   8.0000000   1.0000000

  Atom        11          12          13          14          15
 IAtWgt=           1           1           1           1           7
 AtmWgt=   1.0078250   1.0078250   1.0078250   1.0078250   7.0160045
 NucSpn=           1           1           1           1           3
 AtZEff=   0.0000000   0.0000000   0.0000000   0.0000000   0.0000000
 NQMom=    0.0000000   0.0000000   0.0000000   0.0000000  -4.0100000
 NMagM=    2.7928460   2.7928460   2.7928460   2.7928460   3.2564240
 AtZNuc=   1.0000000   1.0000000   1.0000000   1.0000000   3.0000000
 Leave Link  101 at Mon May 16 17:33:28 2022, MaxMem=  2147483648 cpu:         2.0
 (Enter /gpfs/runtime/opt/gaussian/g09-D01/g09/l103.exe)

 GradGradGradGradGradGradGradGradGradGradGradGradGradGradGradGradGradGrad
 Berny optimization.
 Initialization pass.
                           ----------------------------
                           !    Initial Parameters    !
                           ! (Angstroms and Degrees)  !
 --------------------------                            --------------------------
 ! Name  Definition              Value          Derivative Info.                !
 --------------------------------------------------------------------------------
 ! R1    R(1,2)                  1.31           estimate D2E/DX2                !
 ! R2    R(1,10)                 1.08           estimate D2E/DX2                !
 ! R3    R(1,11)                 1.0799         estimate D2E/DX2                !
 ! R4    R(2,3)                  1.507          estimate D2E/DX2                !
 ! R5    R(2,12)                 1.08           estimate D2E/DX2                !
 ! R6    R(3,4)                  1.0901         estimate D2E/DX2                !
 ! R7    R(3,5)                  1.5408         estimate D2E/DX2                !
 ! R8    R(3,9)                  1.4574         estimate D2E/DX2                !
 ! R9    R(5,6)                  1.4574         estimate D2E/DX2                !
 ! R10   R(5,13)                 1.0901         estimate D2E/DX2                !
 ! R11   R(5,14)                 1.0899         estimate D2E/DX2                !
 ! R12   R(6,7)                  1.3372         estimate D2E/DX2                !
 ! R13   R(7,8)                  1.2143         estimate D2E/DX2                !
 ! R14   R(7,9)                  1.3402         estimate D2E/DX2                !
 ! R15   R(8,15)                 3.1815         estimate D2E/DX2                !
 ! A1    A(2,1,10)             119.9961         estimate D2E/DX2                !
 ! A2    A(2,1,11)             120.0029         estimate D2E/DX2                !
 ! A3    A(10,1,11)            120.0004         estimate D2E/DX2                !
 ! A4    A(1,2,3)              119.999          estimate D2E/DX2                !
 ! A5    A(1,2,12)             120.0033         estimate D2E/DX2                !
 ! A6    A(3,2,12)             119.9977         estimate D2E/DX2                !
 ! A7    A(2,3,4)              110.4876         estimate D2E/DX2                !
 ! A8    A(2,3,5)              110.5416         estimate D2E/DX2                !
 ! A9    A(2,3,9)              110.5461         estimate D2E/DX2                !
 ! A10   A(4,3,5)              110.5409         estimate D2E/DX2                !
 ! A11   A(4,3,9)              110.5389         estimate D2E/DX2                !
 ! A12   A(5,3,9)              104.0224         estimate D2E/DX2                !
 ! A13   A(3,5,6)              103.8976         estimate D2E/DX2                !
 ! A14   A(3,5,13)             110.5423         estimate D2E/DX2                !
 ! A15   A(3,5,14)             110.5443         estimate D2E/DX2                !
 ! A16   A(6,5,13)             110.536          estimate D2E/DX2                !
 ! A17   A(6,5,14)             110.5462         estimate D2E/DX2                !
 ! A18   A(13,5,14)            110.597          estimate D2E/DX2                !
 ! A19   A(5,6,7)              109.1792         estimate D2E/DX2                !
 ! A20   A(6,7,8)              123.077          estimate D2E/DX2                !
 ! A21   A(6,7,9)              113.8887         estimate D2E/DX2                !
 ! A22   A(8,7,9)              123.0342         estimate D2E/DX2                !
 ! A23   A(7,8,15)             130.8556         estimate D2E/DX2                !
 ! A24   A(3,9,7)              109.0119         estimate D2E/DX2                !
 ! D1    D(10,1,2,3)           179.9986         estimate D2E/DX2                !
 ! D2    D(10,1,2,12)           -0.0002         estimate D2E/DX2                !
 ! D3    D(11,1,2,3)            -0.2775         estimate D2E/DX2                !
 ! D4    D(11,1,2,12)          179.7237         estimate D2E/DX2                !
 ! D5    D(1,2,3,4)             -0.7015         estimate D2E/DX2                !
 ! D6    D(1,2,3,5)            121.9826         estimate D2E/DX2                !
 ! D7    D(1,2,3,9)           -123.3863         estimate D2E/DX2                !
 ! D8    D(12,2,3,4)           179.2973         estimate D2E/DX2                !
 ! D9    D(12,2,3,5)           -58.0185         estimate D2E/DX2                !
 ! D10   D(12,2,3,9)            56.6125         estimate D2E/DX2                !
 ! D11   D(2,3,5,6)            118.6082         estimate D2E/DX2                !
 ! D12   D(2,3,5,13)          -122.7957         estimate D2E/DX2                !
 ! D13   D(2,3,5,14)            -0.0009         estimate D2E/DX2                !
 ! D14   D(4,3,5,6)           -118.7388         estimate D2E/DX2                !
 ! D15   D(4,3,5,13)            -0.1427         estimate D2E/DX2                !
 ! D16   D(4,3,5,14)           122.6521         estimate D2E/DX2                !
 ! D17   D(9,3,5,6)             -0.0697         estimate D2E/DX2                !
 ! D18   D(9,3,5,13)           118.5264         estimate D2E/DX2                !
 ! D19   D(9,3,5,14)          -118.6788         estimate D2E/DX2                !
 ! D20   D(2,3,9,7)           -118.5507         estimate D2E/DX2                !
 ! D21   D(4,3,9,7)            118.7945         estimate D2E/DX2                !
 ! D22   D(5,3,9,7)              0.1241         estimate D2E/DX2                !
 ! D23   D(3,5,6,7)             -0.0061         estimate D2E/DX2                !
 ! D24   D(13,5,6,7)          -118.6065         estimate D2E/DX2                !
 ! D25   D(14,5,6,7)           118.6017         estimate D2E/DX2                !
 ! D26   D(5,6,7,8)           -179.9616         estimate D2E/DX2                !
 ! D27   D(5,6,7,9)              0.0913         estimate D2E/DX2                !
 ! D28   D(6,7,8,15)           -26.2878         estimate D2E/DX2                !
 ! D29   D(9,7,8,15)           153.6545         estimate D2E/DX2                !
 ! D30   D(6,7,9,3)             -0.1403         estimate D2E/DX2                !
 ! D31   D(8,7,9,3)            179.9126         estimate D2E/DX2                !
 --------------------------------------------------------------------------------
 Trust Radius=3.00D-01 FncErr=1.00D-07 GrdErr=1.00D-06
 Number of steps in this run=     80 maximum allowed number of steps=    100.
 GradGradGradGradGradGradGradGradGradGradGradGradGradGradGradGradGradGrad

 Leave Link  103 at Mon May 16 17:33:28 2022, MaxMem=  2147483648 cpu:         0.2
 (Enter /gpfs/runtime/opt/gaussian/g09-D01/g09/l202.exe)
                          Input orientation:                          
 ---------------------------------------------------------------------
 Center     Atomic      Atomic             Coordinates (Angstroms)
 Number     Number       Type             X           Y           Z
 ---------------------------------------------------------------------
      1          6           0        3.111600    0.403400    0.061500
      2          6           0        1.890400    0.222800    0.499900
      3          6           0        0.780500   -0.091400   -0.469800
      4          1           0        1.162100   -0.119100   -1.490500
      5          6           0        0.108600   -1.429800   -0.107300
      6          8           0       -1.272600   -1.062200    0.177800
      7          6           0       -1.417700    0.257600    0.018900
      8          8           0       -2.472000    0.834200    0.193600
      9          8           0       -0.293800    0.886400   -0.351900
     10          1           0        3.907000    0.628600    0.756500
     11          1           0        3.323800    0.322700   -0.994300
     12          1           0        1.679000    0.299100    1.556300
     13          1           0        0.154400   -2.121100   -0.948900
     14          1           0        0.577800   -1.867000    0.774000
     15          3           0       -5.472000   -0.202600   -0.023200
 ---------------------------------------------------------------------
                    Distance matrix (angstroms):
                    1          2          3          4          5
     1  C    0.000000
     2  C    1.310015   0.000000
     3  C    2.441543   1.506956   0.000000
     4  H    2.546028   2.146860   1.090052   0.000000
     5  C    3.522375   2.504913   1.540834   2.177393   0.000000
     6  O    4.624145   3.429219   2.361580   3.098456   1.457438
     7  C    4.531846   3.343067   2.278752   3.012567   2.278780
     8  O    5.601752   4.415672   3.446098   4.117239   3.446119
     9  O    3.464237   2.436526   1.457434   2.104064   2.363586
    10  H    1.080001   2.072967   3.434707   3.625264   4.405792
    11  H    1.079933   2.072981   2.629630   2.261493   3.767696
    12  H    2.073077   1.080043   2.250527   3.118504   2.867545
    13  H    4.017342   3.256775   2.177434   2.305817   1.090084
    14  H    3.475991   2.483005   2.177356   2.919678   1.089946
    15  Li   8.605382   7.393209   6.269416   6.794941   5.714559
                    6          7          8          9         10
     6  O    0.000000
     7  C    1.337227   0.000000
     8  O    2.243912   1.214305   0.000000
     9  O    2.244031   1.340162   2.246074   0.000000
    10  H    5.479229   5.388332   6.407087   4.352210   0.000000
    11  H    4.941524   4.848983   5.938353   3.717185   1.870561
    12  H    3.530629   3.457582   4.401600   2.806793   2.390028
    13  H    2.104056   3.011038   4.115469   3.098766   4.954921
    14  H    2.104076   3.011000   4.115170   3.099766   4.160757
    15  Li   4.291186   4.080552   3.181502   5.301671   9.447987
                   11         12         13         14         15
    11  H    0.000000
    12  H    3.035043   0.000000
    13  H    4.002414   3.802341   0.000000
    14  H    3.932199   2.552768   1.792266   0.000000
    15  Li   8.864822   7.340526   6.016140   6.325017   0.000000
 Stoichiometry    C5H6LiO3(1+)
 Framework group  C1[X(C5H6LiO3)]
 Deg. of freedom    39
 Full point group                 C1      NOp   1
 Largest Abelian subgroup         C1      NOp   1
 Largest concise Abelian subgroup C1      NOp   1
                         Standard orientation:                         
 ---------------------------------------------------------------------
 Center     Atomic      Atomic             Coordinates (Angstroms)
 Number     Number       Type             X           Y           Z
 ---------------------------------------------------------------------
      1          6           0        3.294936   -0.377323   -0.047830
      2          6           0        2.071944   -0.228219   -0.493026
      3          6           0        0.953788    0.086514    0.466967
      4          1           0        1.331898    0.142896    1.487785
      5          6           0        0.258936    1.404510    0.074235
      6          8           0       -1.114596    1.006011   -0.206360
      7          6           0       -1.236359   -0.312500   -0.019608
      8          8           0       -2.279598   -0.911654   -0.184544
      9          8           0       -0.102385   -0.912830    0.367356
     10          1           0        4.096254   -0.602907   -0.735873
     11          1           0        3.502618   -0.270273    1.006525
     12          1           0        1.864985   -0.330870   -1.548073
     13          1           0        0.289864    2.114340    0.900956
     14          1           0        0.722713    1.831195   -0.815053
     15          3           0       -5.298393    0.075170    0.002564
 ---------------------------------------------------------------------
 Rotational constants (GHZ):      5.3074671      0.9001544      0.8108365
 Leave Link  202 at Mon May 16 17:33:28 2022, MaxMem=  2147483648 cpu:         0.6
 (Enter /gpfs/runtime/opt/gaussian/g09-D01/g09/l301.exe)
 Standard basis: 6-31+G(d,p) (6D, 7F)
 Ernie: Thresh=  0.10000D-02 Tol=  0.10000D-05 Strict=F.
 There are   201 symmetry adapted cartesian basis functions of A   symmetry.
 There are   201 symmetry adapted basis functions of A   symmetry.
   201 basis functions,   330 primitive gaussians,   201 cartesian basis functions
    31 alpha electrons       31 beta electrons
       nuclear repulsion energy       391.2686571093 Hartrees.
 IExCor= 4336 DFT=T Ex+Corr=M062X ExCW=0 ScaHFX=  0.540000
 ScaDFX=  1.000000  1.000000  1.000000  1.000000 ScalE2=  1.000000  1.000000
 IRadAn=      0 IRanWt=     -1 IRanGd=            0 ICorTp=0 IEmpDi=131
 NAtoms=   15 NActive=   15 NUniq=   15 SFac= 1.00D+00 NAtFMM=   60 NAOKFM=F Big=F
 Integral buffers will be    131072 words long.
 Raffenetti 2 integral format.
 Two-electron integral symmetry is turned on.
 R6Disp:  Grimme-D3 Dispersion energy=       -0.0004775811 Hartrees.
 Nuclear repulsion after empirical dispersion term =      391.2681795282 Hartrees.
 ------------------------------------------------------------------------------
 Polarizable Continuum Model (PCM)
 =================================
 Model                : PCM (using non-symmetric T matrix).
 Atomic radii         : SMD-Coulomb.
 Polarization charges : Total charges.
 Charge compensation  : None.
 Solution method      : On-the-fly selection.
 Cavity type          : VdW (van der Waals Surface) (Alpha=1.000).
 Cavity algorithm     : GePol (No added spheres)
                        Default sphere list used, NSphG=   15.
                        Lebedev-Laikov grids with approx.  5.0 points / Ang**2.
                        Smoothing algorithm: Karplus/York (Gamma=1.0000).
                        Polarization charges: spherical gaussians, with
                                              point-specific exponents (IZeta= 3).
                        Self-potential: point-specific (ISelfS= 7).
                        Self-field    : sphere-specific E.n sum rule (ISelfD= 2).
 1st derivatives      : Analytical E(r).r(x)/FMM algorithm (CHGder, D1EAlg=3).
                        Cavity 1st derivative terms included.
 Solvent              : DiMethylSulfoxide, Eps=  46.826000 Eps(inf)=   2.007889
 ------------------------------------------------------------------------------
 Spheres list:
 ISph  on   Nord     Re0    Alpha      Xe            Ye            Ze
    1   C      1    1.8500  1.000      3.294936     -0.377323     -0.047830
    2   C      2    1.8500  1.000      2.071944     -0.228219     -0.493026
    3   C      3    1.8500  1.000      0.953788      0.086514      0.466967
    4   H      4    1.2000  1.000      1.331898      0.142896      1.487785
    5   C      5    1.8500  1.000      0.258936      1.404510      0.074235
    6   O      6    2.2940  1.000     -1.114596      1.006011     -0.206360
    7   C      7    1.8500  1.000     -1.236359     -0.312500     -0.019608
    8   O      8    2.2940  1.000     -2.279598     -0.911654     -0.184544
    9   O      9    2.2940  1.000     -0.102385     -0.912830      0.367356
   10   H     10    1.2000  1.000      4.096254     -0.602907     -0.735873
   11   H     11    1.2000  1.000      3.502618     -0.270273      1.006525
   12   H     12    1.2000  1.000      1.864985     -0.330870     -1.548073
   13   H     13    1.2000  1.000      0.289864      2.114340      0.900956
   14   H     14    1.2000  1.000      0.722713      1.831195     -0.815053
   15  Li     15    1.8200  1.000     -5.298393      0.075170      0.002564
 ------------------------------------------------------------------------------
 GePol: Number of generator spheres                  =      15
 GePol: Total number of spheres                      =      15
 GePol: Number of exposed spheres                    =      15 (100.00%)
 GePol: Number of points                             =    1574
 GePol: Average weight of points                     =       0.12
 GePol: Minimum weight of points                     =   0.11D-09
 GePol: Maximum weight of points                     =    0.17992
 GePol: Number of points with low weight             =      69
 GePol: Fraction of low-weight points (<1% of avg)   =       4.38%
 GePol: Cavity surface area                          =    196.500 Ang**2
 GePol: Cavity volume                                =    180.181 Ang**3
 ------------------------------------------------------------------------------
 Atomic radii for non-electrostatic terms: SMD-CDS.
 ------------------------------------------------------------------------------
 PCM non-electrostatic energy =         0.0016175709 Hartrees.
 Nuclear repulsion after PCM non-electrostatic terms =      391.2697970992 Hartrees.
 Leave Link  301 at Mon May 16 17:33:28 2022, MaxMem=  2147483648 cpu:         1.0
 (Enter /gpfs/runtime/opt/gaussian/g09-D01/g09/l302.exe)
 NPDir=0 NMtPBC=     1 NCelOv=     1 NCel=       1 NClECP=     1 NCelD=      1
         NCelK=      1 NCelE2=     1 NClLst=     1 CellRange=     0.0.
 One-electron integrals computed using PRISM.
 NBasis=   201 RedAO= T EigKep=  2.60D-05  NBF=   201
 NBsUse=   201 1.00D-06 EigRej= -1.00D+00 NBFU=   201
 Precomputing XC quadrature grid using
 IXCGrd= 4 IRadAn=           0 IRanWt=          -1 IRanGd=           0 AccXCQ= 0.00D+00.
 Generated NRdTot=       0 NPtTot=           0 NUsed=           0 NTot=          32
 NSgBfM=   201   201   201   201   201 MxSgAt=    15 MxSgA2=    15.
 Leave Link  302 at Mon May 16 17:33:28 2022, MaxMem=  2147483648 cpu:         1.0
 (Enter /gpfs/runtime/opt/gaussian/g09-D01/g09/l303.exe)
 DipDrv:  MaxL=1.
 Leave Link  303 at Mon May 16 17:33:28 2022, MaxMem=  2147483648 cpu:         0.2
 (Enter /gpfs/runtime/opt/gaussian/g09-D01/g09/l401.exe)
 ExpMin= 7.40D-03 ExpMax= 5.48D+03 ExpMxC= 8.25D+02 IAcc=3 IRadAn=         5 AccDes= 0.00D+00
 Harris functional with IExCor= 1009 and IRadAn=       5 diagonalized for initial guess.
 HarFok:  IExCor= 1009 AccDes= 0.00D+00 IRadAn=         5 IDoV= 1 UseB2=F ITyADJ=14
 ICtDFT=  3500011 ScaDFX=  1.000000  1.000000  1.000000  1.000000
 FoFCou: FMM=F IPFlag=           0 FMFlag=      100000 FMFlg1=           0
         NFxFlg=           0 DoJE=T BraDBF=F KetDBF=T FulRan=T
         wScrn=  0.000000 ICntrl=     500 IOpCl=  0 I1Cent=   200000004 NGrid=           0
         NMat0=    1 NMatS0=      1 NMatT0=    0 NMatD0=    1 NMtDS0=    0 NMtDT0=    0
 Petite list used in FoFCou.
 Harris En= -426.796395175560    
 JPrj=0 DoOrth=F DoCkMO=F.
 Leave Link  401 at Mon May 16 17:33:29 2022, MaxMem=  2147483648 cpu:         5.8
 (Enter /gpfs/runtime/opt/gaussian/g09-D01/g09/l502.exe)
 Closed shell SCF:
 Using DIIS extrapolation, IDIIS=  1040.
 Integral symmetry usage will be decided dynamically.
 Keep R1 ints in memory in canonical form, NReq=212008918.
 IVT=      142861 IEndB=      142861 NGot=  2147483648 MDV=  1941265337
 LenX=  1941265337 LenY=  1941224495
 Requested convergence on RMS density matrix=1.00D-08 within 128 cycles.
 Requested convergence on MAX density matrix=1.00D-06.
 Requested convergence on             energy=1.00D-06.
 No special actions if energy rises.
 FoFCou: FMM=F IPFlag=           0 FMFlag=           0 FMFlg1=           0
         NFxFlg=           0 DoJE=F BraDBF=F KetDBF=F FulRan=T
         wScrn=  0.000000 ICntrl=     600 IOpCl=  0 I1Cent=           0 NGrid=           0
         NMat0=    1 NMatS0=  20301 NMatT0=    0 NMatD0=    1 NMtDS0=    0 NMtDT0=    0
 Symmetry not used in FoFCou.

 Cycle   1  Pass 1  IDiag  1:
 Inv3:  Mode=1 IEnd=     7432428.
 Iteration    1 A*A^-1 deviation from unit magnitude is 7.33D-15 for     97.
 Iteration    1 A*A^-1 deviation from orthogonality  is 3.37D-15 for   1331    707.
 Iteration    1 A^-1*A deviation from unit magnitude is 6.22D-15 for    140.
 Iteration    1 A^-1*A deviation from orthogonality  is 2.58D-10 for    893    872.
 Iteration    2 A*A^-1 deviation from unit magnitude is 1.09D-14 for     97.
 Iteration    2 A*A^-1 deviation from orthogonality  is 8.36D-15 for    874    240.
 Iteration    2 A^-1*A deviation from unit magnitude is 1.78D-15 for     97.
 Iteration    2 A^-1*A deviation from orthogonality  is 9.73D-16 for   1303    670.
 E= -426.903354666543    
 DIIS: error= 1.88D-02 at cycle   1 NSaved=   1.
 NSaved= 1 IEnMin= 1 EnMin= -426.903354666543     IErMin= 1 ErrMin= 1.88D-02
 ErrMax= 1.88D-02  0.00D+00 EMaxC= 1.00D-01 BMatC= 2.34D-01 BMatP= 2.34D-01
 IDIUse=3 WtCom= 8.12D-01 WtEn= 1.88D-01
 Coeff-Com:  0.100D+01
 Coeff-En:   0.100D+01
 Coeff:      0.100D+01
 Gap=     0.514 Goal=   None    Shift=    0.000
 GapD=    0.514 DampG=2.000 DampE=0.500 DampFc=1.0000 IDamp=-1.
 RMSDP=6.90D-03 MaxDP=3.38D-01              OVMax= 1.90D-01

 Cycle   2  Pass 1  IDiag  1:
 E= -426.891092172344     Delta-E=        0.012262494199 Rises=F Damp=F
 DIIS: error= 2.22D-02 at cycle   2 NSaved=   2.
 NSaved= 2 IEnMin= 1 EnMin= -426.903354666543     IErMin= 1 ErrMin= 1.88D-02
 ErrMax= 2.22D-02  0.00D+00 EMaxC= 1.00D-01 BMatC= 2.48D-01 BMatP= 2.34D-01
 IDIUse=3 WtCom= 7.78D-01 WtEn= 2.22D-01
 Coeff-Com:  0.508D+00 0.492D+00
 Coeff-En:   0.518D+00 0.482D+00
 Coeff:      0.510D+00 0.490D+00
 Gap=     0.305 Goal=   None    Shift=    0.000
 RMSDP=4.02D-03 MaxDP=2.90D-01 DE= 1.23D-02 OVMax= 1.06D-01

 Cycle   3  Pass 1  IDiag  1:
 E= -427.071805379323     Delta-E=       -0.180713206979 Rises=F Damp=F
 DIIS: error= 4.90D-03 at cycle   3 NSaved=   3.
 NSaved= 3 IEnMin= 3 EnMin= -427.071805379323     IErMin= 3 ErrMin= 4.90D-03
 ErrMax= 4.90D-03  0.00D+00 EMaxC= 1.00D-01 BMatC= 1.28D-02 BMatP= 2.34D-01
 IDIUse=3 WtCom= 9.51D-01 WtEn= 4.90D-02
 Coeff-Com:  0.130D+00 0.214D+00 0.656D+00
 Coeff-En:   0.000D+00 0.000D+00 0.100D+01
 Coeff:      0.124D+00 0.203D+00 0.673D+00
 Gap=     0.331 Goal=   None    Shift=    0.000
 RMSDP=7.68D-04 MaxDP=2.89D-02 DE=-1.81D-01 OVMax= 3.53D-02

 Cycle   4  Pass 1  IDiag  1:
 E= -427.080172112289     Delta-E=       -0.008366732966 Rises=F Damp=F
 DIIS: error= 1.56D-03 at cycle   4 NSaved=   4.
 NSaved= 4 IEnMin= 4 EnMin= -427.080172112289     IErMin= 4 ErrMin= 1.56D-03
 ErrMax= 1.56D-03  0.00D+00 EMaxC= 1.00D-01 BMatC= 1.71D-03 BMatP= 1.28D-02
 IDIUse=3 WtCom= 9.84D-01 WtEn= 1.56D-02
 Coeff-Com:  0.336D-02 0.368D-01 0.312D+00 0.648D+00
 Coeff-En:   0.000D+00 0.000D+00 0.667D-01 0.933D+00
 Coeff:      0.331D-02 0.362D-01 0.308D+00 0.652D+00
 Gap=     0.322 Goal=   None    Shift=    0.000
 RMSDP=2.40D-04 MaxDP=5.46D-03 DE=-8.37D-03 OVMax= 8.91D-03

 Cycle   5  Pass 1  IDiag  1:
 E= -427.081466306318     Delta-E=       -0.001294194029 Rises=F Damp=F
 DIIS: error= 3.27D-04 at cycle   5 NSaved=   5.
 NSaved= 5 IEnMin= 5 EnMin= -427.081466306318     IErMin= 5 ErrMin= 3.27D-04
 ErrMax= 3.27D-04  0.00D+00 EMaxC= 1.00D-01 BMatC= 6.41D-05 BMatP= 1.71D-03
 IDIUse=3 WtCom= 9.97D-01 WtEn= 3.27D-03
 Coeff-Com: -0.273D-02 0.801D-02 0.110D+00 0.284D+00 0.600D+00
 Coeff-En:   0.000D+00 0.000D+00 0.000D+00 0.000D+00 0.100D+01
 Coeff:     -0.272D-02 0.798D-02 0.110D+00 0.283D+00 0.602D+00
 Gap=     0.321 Goal=   None    Shift=    0.000
 RMSDP=5.19D-05 MaxDP=2.36D-03 DE=-1.29D-03 OVMax= 1.68D-03

 Cycle   6  Pass 1  IDiag  1:
 E= -427.081514406537     Delta-E=       -0.000048100219 Rises=F Damp=F
 DIIS: error= 7.23D-05 at cycle   6 NSaved=   6.
 NSaved= 6 IEnMin= 6 EnMin= -427.081514406537     IErMin= 6 ErrMin= 7.23D-05
 ErrMax= 7.23D-05  0.00D+00 EMaxC= 1.00D-01 BMatC= 3.65D-06 BMatP= 6.41D-05
 IDIUse=1 WtCom= 1.00D+00 WtEn= 0.00D+00
 Coeff-Com: -0.124D-02-0.501D-03 0.125D-01 0.397D-01 0.214D+00 0.735D+00
 Coeff:     -0.124D-02-0.501D-03 0.125D-01 0.397D-01 0.214D+00 0.735D+00
 Gap=     0.322 Goal=   None    Shift=    0.000
 RMSDP=1.87D-05 MaxDP=5.71D-04 DE=-4.81D-05 OVMax= 4.03D-04

 Cycle   7  Pass 1  IDiag  1:
 E= -427.081517619488     Delta-E=       -0.000003212950 Rises=F Damp=F
 DIIS: error= 1.84D-05 at cycle   7 NSaved=   7.
 NSaved= 7 IEnMin= 7 EnMin= -427.081517619488     IErMin= 7 ErrMin= 1.84D-05
 ErrMax= 1.84D-05  0.00D+00 EMaxC= 1.00D-01 BMatC= 2.16D-07 BMatP= 3.65D-06
 IDIUse=1 WtCom= 1.00D+00 WtEn= 0.00D+00
 Coeff-Com: -0.111D-04-0.970D-03-0.649D-02-0.184D-01-0.101D-02 0.138D+00
 Coeff-Com:  0.889D+00
 Coeff:     -0.111D-04-0.970D-03-0.649D-02-0.184D-01-0.101D-02 0.138D+00
 Coeff:      0.889D+00
 Gap=     0.322 Goal=   None    Shift=    0.000
 RMSDP=6.07D-06 MaxDP=1.38D-04 DE=-3.21D-06 OVMax= 2.19D-04

 Cycle   8  Pass 1  IDiag  1:
 E= -427.081517917239     Delta-E=       -0.000000297751 Rises=F Damp=F
 DIIS: error= 5.82D-06 at cycle   8 NSaved=   8.
 NSaved= 8 IEnMin= 8 EnMin= -427.081517917239     IErMin= 8 ErrMin= 5.82D-06
 ErrMax= 5.82D-06  0.00D+00 EMaxC= 1.00D-01 BMatC= 2.94D-08 BMatP= 2.16D-07
 IDIUse=1 WtCom= 1.00D+00 WtEn= 0.00D+00
 Coeff-Com:  0.122D-03-0.265D-03-0.267D-02-0.922D-02-0.189D-01-0.358D-01
 Coeff-Com:  0.238D+00 0.829D+00
 Coeff:      0.122D-03-0.265D-03-0.267D-02-0.922D-02-0.189D-01-0.358D-01
 Coeff:      0.238D+00 0.829D+00
 Gap=     0.322 Goal=   None    Shift=    0.000
 RMSDP=2.04D-06 MaxDP=5.17D-05 DE=-2.98D-07 OVMax= 7.98D-05

 Cycle   9  Pass 1  IDiag  1:
 E= -427.081517954537     Delta-E=       -0.000000037298 Rises=F Damp=F
 DIIS: error= 1.49D-06 at cycle   9 NSaved=   9.
 NSaved= 9 IEnMin= 9 EnMin= -427.081517954537     IErMin= 9 ErrMin= 1.49D-06
 ErrMax= 1.49D-06  0.00D+00 EMaxC= 1.00D-01 BMatC= 1.74D-09 BMatP= 2.94D-08
 IDIUse=1 WtCom= 1.00D+00 WtEn= 0.00D+00
 Coeff-Com:  0.181D-04 0.312D-04 0.314D-03 0.344D-03-0.197D-02-0.172D-01
 Coeff-Com: -0.485D-01 0.110D+00 0.957D+00
 Coeff:      0.181D-04 0.312D-04 0.314D-03 0.344D-03-0.197D-02-0.172D-01
 Coeff:     -0.485D-01 0.110D+00 0.957D+00
 Gap=     0.322 Goal=   None    Shift=    0.000
 RMSDP=6.60D-07 MaxDP=1.58D-05 DE=-3.73D-08 OVMax= 2.55D-05

 Cycle  10  Pass 1  IDiag  1:
 E= -427.081517956971     Delta-E=       -0.000000002434 Rises=F Damp=F
 DIIS: error= 7.84D-07 at cycle  10 NSaved=  10.
 NSaved=10 IEnMin=10 EnMin= -427.081517956971     IErMin=10 ErrMin= 7.84D-07
 ErrMax= 7.84D-07  0.00D+00 EMaxC= 1.00D-01 BMatC= 3.46D-10 BMatP= 1.74D-09
 IDIUse=1 WtCom= 1.00D+00 WtEn= 0.00D+00
 Coeff-Com: -0.518D-06 0.306D-04 0.342D-03 0.789D-03 0.510D-03-0.486D-02
 Coeff-Com: -0.355D-01-0.741D-02 0.427D+00 0.619D+00
 Coeff:     -0.518D-06 0.306D-04 0.342D-03 0.789D-03 0.510D-03-0.486D-02
 Coeff:     -0.355D-01-0.741D-02 0.427D+00 0.619D+00
 Gap=     0.322 Goal=   None    Shift=    0.000
 RMSDP=1.62D-07 MaxDP=5.07D-06 DE=-2.43D-09 OVMax= 9.65D-06

 Cycle  11  Pass 1  IDiag  1:
 E= -427.081517957323     Delta-E=       -0.000000000352 Rises=F Damp=F
 DIIS: error= 2.12D-07 at cycle  11 NSaved=  11.
 NSaved=11 IEnMin=11 EnMin= -427.081517957323     IErMin=11 ErrMin= 2.12D-07
 ErrMax= 2.12D-07  0.00D+00 EMaxC= 1.00D-01 BMatC= 2.38D-11 BMatP= 3.46D-10
 IDIUse=1 WtCom= 1.00D+00 WtEn= 0.00D+00
 Coeff-Com: -0.216D-05 0.540D-05 0.725D-04 0.202D-03 0.394D-03 0.632D-03
 Coeff-Com: -0.539D-02-0.196D-01 0.670D-02 0.195D+00 0.822D+00
 Coeff:     -0.216D-05 0.540D-05 0.725D-04 0.202D-03 0.394D-03 0.632D-03
 Coeff:     -0.539D-02-0.196D-01 0.670D-02 0.195D+00 0.822D+00
 Gap=     0.322 Goal=   None    Shift=    0.000
 RMSDP=6.30D-08 MaxDP=2.31D-06 DE=-3.52D-10 OVMax= 2.10D-06

 Cycle  12  Pass 1  IDiag  1:
 E= -427.081517957351     Delta-E=       -0.000000000028 Rises=F Damp=F
 DIIS: error= 5.26D-08 at cycle  12 NSaved=  12.
 NSaved=12 IEnMin=12 EnMin= -427.081517957351     IErMin=12 ErrMin= 5.26D-08
 ErrMax= 5.26D-08  0.00D+00 EMaxC= 1.00D-01 BMatC= 1.84D-12 BMatP= 2.38D-11
 IDIUse=1 WtCom= 1.00D+00 WtEn= 0.00D+00
 Coeff-Com: -0.623D-06 0.608D-07 0.780D-05 0.246D-04 0.106D-03 0.479D-03
 Coeff-Com:  0.202D-03-0.597D-02-0.224D-01 0.244D-01 0.271D+00 0.733D+00
 Coeff:     -0.623D-06 0.608D-07 0.780D-05 0.246D-04 0.106D-03 0.479D-03
 Coeff:      0.202D-03-0.597D-02-0.224D-01 0.244D-01 0.271D+00 0.733D+00
 Gap=     0.322 Goal=   None    Shift=    0.000
 RMSDP=1.65D-08 MaxDP=5.05D-07 DE=-2.82D-11 OVMax= 3.60D-07

 Cycle  13  Pass 1  IDiag  1:
 E= -427.081517957346     Delta-E=        0.000000000005 Rises=F Damp=F
 DIIS: error= 2.88D-08 at cycle  13 NSaved=  13.
 NSaved=13 IEnMin=12 EnMin= -427.081517957351     IErMin=13 ErrMin= 2.88D-08
 ErrMax= 2.88D-08  0.00D+00 EMaxC= 1.00D-01 BMatC= 4.28D-13 BMatP= 1.84D-12
 IDIUse=1 WtCom= 1.00D+00 WtEn= 0.00D+00
 Coeff-Com:  0.235D-07-0.790D-06-0.616D-05-0.178D-04-0.745D-05 0.124D-03
 Coeff-Com:  0.901D-03 0.305D-03-0.118D-01-0.206D-01 0.347D-02 0.354D+00
 Coeff-Com:  0.674D+00
 Coeff:      0.235D-07-0.790D-06-0.616D-05-0.178D-04-0.745D-05 0.124D-03
 Coeff:      0.901D-03 0.305D-03-0.118D-01-0.206D-01 0.347D-02 0.354D+00
 Coeff:      0.674D+00
 Gap=     0.322 Goal=   None    Shift=    0.000
 RMSDP=5.32D-09 MaxDP=1.47D-07 DE= 4.89D-12 OVMax= 1.45D-07

 Error on total polarization charges =  0.02135
 SCF Done:  E(RM062X) =  -427.081517957     A.U. after   13 cycles
            NFock= 13  Conv=0.53D-08     -V/T= 2.0087
 KE= 4.233855169366D+02 PE=-1.772626630893D+03 EE= 5.308897989004D+02
 SMD-CDS (non-electrostatic) energy       (kcal/mol) =       1.02
 (included in total energy above)
 Leave Link  502 at Mon May 16 17:33:46 2022, MaxMem=  2147483648 cpu:       101.4
 (Enter /gpfs/runtime/opt/gaussian/g09-D01/g09/l601.exe)
 Copying SCF densities to generalized density rwf, IOpCl= 0 IROHF=0.

 **********************************************************************

            Population analysis using the SCF density.

 **********************************************************************

 Orbital symmetries:
       Occupied  (A) (A) (A) (A) (A) (A) (A) (A) (A) (A) (A) (A)
                 (A) (A) (A) (A) (A) (A) (A) (A) (A) (A) (A) (A)
                 (A) (A) (A) (A) (A) (A) (A)
       Virtual   (A) (A) (A) (A) (A) (A) (A) (A) (A) (A) (A) (A)
                 (A) (A) (A) (A) (A) (A) (A) (A) (A) (A) (A) (A)
                 (A) (A) (A) (A) (A) (A) (A) (A) (A) (A) (A) (A)
                 (A) (A) (A) (A) (A) (A) (A) (A) (A) (A) (A) (A)
                 (A) (A) (A) (A) (A) (A) (A) (A) (A) (A) (A) (A)
                 (A) (A) (A) (A) (A) (A) (A) (A) (A) (A) (A) (A)
                 (A) (A) (A) (A) (A) (A) (A) (A) (A) (A) (A) (A)
                 (A) (A) (A) (A) (A) (A) (A) (A) (A) (A) (A) (A)
                 (A) (A) (A) (A) (A) (A) (A) (A) (A) (A) (A) (A)
                 (A) (A) (A) (A) (A) (A) (A) (A) (A) (A) (A) (A)
                 (A) (A) (A) (A) (A) (A) (A) (A) (A) (A) (A) (A)
                 (A) (A) (A) (A) (A) (A) (A) (A) (A) (A) (A) (A)
                 (A) (A) (A) (A) (A) (A) (A) (A) (A) (A) (A) (A)
                 (A) (A) (A) (A) (A) (A) (A) (A) (A) (A) (A) (A)
                 (A) (A)
 The electronic state is 1-A.
 Alpha  occ. eigenvalues --  -19.71624 -19.71562 -19.64895 -10.74690 -10.62985
 Alpha  occ. eigenvalues --  -10.62003 -10.55826 -10.54880  -2.22691  -1.30001
 Alpha  occ. eigenvalues --   -1.18369  -1.16481  -0.92327  -0.84836  -0.76639
 Alpha  occ. eigenvalues --   -0.70729  -0.66727  -0.61668  -0.60061  -0.59062
 Alpha  occ. eigenvalues --   -0.53567  -0.52186  -0.51430  -0.50197  -0.47016
 Alpha  occ. eigenvalues --   -0.44671  -0.43335  -0.38936  -0.38898  -0.38039
 Alpha  occ. eigenvalues --   -0.33953
 Alpha virt. eigenvalues --   -0.01798   0.00343   0.00594   0.00616   0.02124
 Alpha virt. eigenvalues --    0.02417   0.03617   0.04398   0.04622   0.05030
 Alpha virt. eigenvalues --    0.05329   0.05448   0.06240   0.06994   0.07371
 Alpha virt. eigenvalues --    0.07639   0.07924   0.08193   0.09258   0.10912
 Alpha virt. eigenvalues --    0.11718   0.11845   0.13283   0.13705   0.14907
 Alpha virt. eigenvalues --    0.15927   0.16670   0.17399   0.17901   0.18081
 Alpha virt. eigenvalues --    0.19300   0.20084   0.21576   0.21926   0.23234
 Alpha virt. eigenvalues --    0.24203   0.24317   0.24883   0.25410   0.25945
 Alpha virt. eigenvalues --    0.28549   0.29445   0.29906   0.30359   0.30617
 Alpha virt. eigenvalues --    0.31092   0.31258   0.33275   0.35209   0.36472
 Alpha virt. eigenvalues --    0.37830   0.39548   0.41427   0.42559   0.42731
 Alpha virt. eigenvalues --    0.43009   0.44965   0.46615   0.48060   0.50891
 Alpha virt. eigenvalues --    0.52305   0.54240   0.55635   0.56926   0.63971
 Alpha virt. eigenvalues --    0.65403   0.68170   0.69386   0.73466   0.74924
 Alpha virt. eigenvalues --    0.77162   0.80287   0.80795   0.85668   0.87495
 Alpha virt. eigenvalues --    0.89811   0.90759   0.94610   0.97933   0.98849
 Alpha virt. eigenvalues --    1.01286   1.02669   1.05462   1.09543   1.10570
 Alpha virt. eigenvalues --    1.15188   1.17920   1.20715   1.23250   1.25529
 Alpha virt. eigenvalues --    1.27485   1.29902   1.32576   1.34404   1.35623
 Alpha virt. eigenvalues --    1.36578   1.39972   1.40760   1.43579   1.44474
 Alpha virt. eigenvalues --    1.46971   1.48055   1.49609   1.52548   1.53834
 Alpha virt. eigenvalues --    1.61985   1.65190   1.69037   1.72507   1.74958
 Alpha virt. eigenvalues --    1.79442   1.85166   1.86198   1.88452   1.88656
 Alpha virt. eigenvalues --    1.90655   1.91791   1.95705   1.96709   1.98970
 Alpha virt. eigenvalues --    1.99339   2.03017   2.07472   2.09253   2.13709
 Alpha virt. eigenvalues --    2.15803   2.17512   2.19898   2.25284   2.30397
 Alpha virt. eigenvalues --    2.32953   2.40810   2.44273   2.46383   2.51480
 Alpha virt. eigenvalues --    2.52435   2.54978   2.56440   2.61371   2.62421
 Alpha virt. eigenvalues --    2.64942   2.66527   2.70017   2.71880   2.74965
 Alpha virt. eigenvalues --    2.81303   2.83688   2.87753   2.88484   2.90806
 Alpha virt. eigenvalues --    2.93505   2.96670   3.05321   3.11741   3.24137
 Alpha virt. eigenvalues --    3.25994   3.30819   3.33144   3.40760   3.46288
 Alpha virt. eigenvalues --    3.50645   3.68990   4.18707   4.35003   4.44231
 Alpha virt. eigenvalues --    4.49213   4.60703   4.65858   4.66381   4.78894
          Condensed to atoms (all electrons):
               1          2          3          4          5          6
     1  C    5.460172  -0.122557   0.215483   0.019238   0.014547  -0.004792
     2  C   -0.122557   6.291042  -0.299316  -0.078955  -0.022255  -0.021241
     3  C    0.215483  -0.299316   6.008434   0.398139   0.048681  -0.031476
     4  H    0.019238  -0.078955   0.398139   0.477443  -0.016924   0.002291
     5  C    0.014547  -0.022255   0.048681  -0.016924   5.313179   0.144723
     6  O   -0.004792  -0.021241  -0.031476   0.002291   0.144723   8.384372
     7  C   -0.057096   0.145645  -0.341700   0.011072  -0.078177   0.247230
     8  O    0.002731   0.014525  -0.006114  -0.000515   0.014207  -0.120599
     9  O   -0.032449  -0.105109   0.281697  -0.031258  -0.079617  -0.142694
    10  H    0.407185  -0.052687   0.009104   0.000239   0.000581   0.000050
    11  H    0.433768  -0.088390   0.002888   0.002349   0.007773  -0.000101
    12  H    0.018243   0.304895   0.004685   0.002298   0.005384  -0.000371
    13  H    0.010259  -0.010471  -0.019938  -0.005106   0.397846  -0.034219
    14  H   -0.021897   0.059538  -0.143887   0.002912   0.445159  -0.036109
    15  Li   0.000481  -0.001243  -0.000073   0.000003  -0.000727  -0.000866
               7          8          9         10         11         12
     1  C   -0.057096   0.002731  -0.032449   0.407185   0.433768   0.018243
     2  C    0.145645   0.014525  -0.105109  -0.052687  -0.088390   0.304895
     3  C   -0.341700  -0.006114   0.281697   0.009104   0.002888   0.004685
     4  H    0.011072  -0.000515  -0.031258   0.000239   0.002349   0.002298
     5  C   -0.078177   0.014207  -0.079617   0.000581   0.007773   0.005384
     6  O    0.247230  -0.120599  -0.142694   0.000050  -0.000101  -0.000371
     7  C    4.596591   0.490213   0.210801  -0.000194  -0.000835  -0.005140
     8  O    0.490213   8.274635  -0.100525  -0.000004   0.000000  -0.000122
     9  O    0.210801  -0.100525   8.341949   0.000147   0.000211   0.002027
    10  H   -0.000194  -0.000004   0.000147   0.475472  -0.023420  -0.004567
    11  H   -0.000835   0.000000   0.000211  -0.023420   0.477519   0.003250
    12  H   -0.005140  -0.000122   0.002027  -0.004567   0.003250   0.464045
    13  H   -0.002060  -0.000641   0.003856   0.000005  -0.000042  -0.000022
    14  H    0.022035  -0.000264   0.004779  -0.000028   0.000050   0.001091
    15  Li   0.002924   0.002693  -0.001148   0.000015   0.000035   0.000041
              13         14         15
     1  C    0.010259  -0.021897   0.000481
     2  C   -0.010471   0.059538  -0.001243
     3  C   -0.019938  -0.143887  -0.000073
     4  H   -0.005106   0.002912   0.000003
     5  C    0.397846   0.445159  -0.000727
     6  O   -0.034219  -0.036109  -0.000866
     7  C   -0.002060   0.022035   0.002924
     8  O   -0.000641  -0.000264   0.002693
     9  O    0.003856   0.004779  -0.001148
    10  H    0.000005  -0.000028   0.000015
    11  H   -0.000042   0.000050   0.000035
    12  H   -0.000022   0.001091   0.000041
    13  H    0.468317  -0.029022  -0.000060
    14  H   -0.029022   0.480097  -0.000206
    15  Li  -0.000060  -0.000206   2.001145
 Mulliken charges:
               1
     1  C   -0.343317
     2  C   -0.013420
     3  C   -0.126606
     4  H    0.216775
     5  C   -0.194381
     6  O   -0.386198
     7  C    0.758688
     8  O   -0.570220
     9  O   -0.352666
    10  H    0.188102
    11  H    0.184944
    12  H    0.204262
    13  H    0.221297
    14  H    0.215752
    15  Li   0.996986
 Sum of Mulliken charges =   1.00000
 Mulliken charges with hydrogens summed into heavy atoms:
               1
     1  C    0.029730
     2  C    0.190842
     3  C    0.090169
     5  C    0.242669
     6  O   -0.386198
     7  C    0.758688
     8  O   -0.570220
     9  O   -0.352666
    15  Li   0.996986
 Electronic spatial extent (au):  <R**2>=           1194.3548
 Charge=              1.0000 electrons
 Dipole moment (field-independent basis, Debye):
    X=            -18.1773    Y=              4.2017    Z=              1.0173  Tot=             18.6844
 Quadrupole moment (field-independent basis, Debye-Ang):
   XX=             81.4428   YY=            -49.4527   ZZ=            -42.5701
   XY=             -4.2381   XZ=             -1.0985   YZ=              1.7242
 Traceless Quadrupole moment (field-independent basis, Debye-Ang):
   XX=             84.9694   YY=            -45.9260   ZZ=            -39.0434
   XY=             -4.2381   XZ=             -1.0985   YZ=              1.7242
 Octapole moment (field-independent basis, Debye-Ang**2):
  XXX=           -702.2091  YYY=             13.4823  ZZZ=              1.5695  XYY=             -9.3338
  XXY=             14.5765  XXZ=              4.3922  XZZ=             -6.9224  YZZ=              1.6409
  YYZ=              1.4870  XYZ=              1.6495
 Hexadecapole moment (field-independent basis, Debye-Ang**3):
 XXXX=           2756.1453 YYYY=           -236.3395 ZZZZ=            -87.0510 XXXY=            -98.6989
 XXXZ=            -13.1621 YYYX=              4.6700 YYYZ=              2.6356 ZZZX=              2.2467
 ZZZY=              1.9660 XXYY=           -238.7059 XXZZ=           -172.5619 YYZZ=            -53.4611
 XXYZ=              4.1763 YYXZ=             -0.7166 ZZXY=             -1.1639
 N-N= 3.912697970992D+02 E-N=-1.772626632570D+03  KE= 4.233855169366D+02
 No NMR shielding tensors so no spin-rotation constants.
 Leave Link  601 at Mon May 16 17:33:46 2022, MaxMem=  2147483648 cpu:         1.8
 (Enter /gpfs/runtime/opt/gaussian/g09-D01/g09/l701.exe)
 Compute integral first derivatives.
 ... and contract with generalized density number  0.
 R6Disp: Adding Grimme-D3 dispersion energy 1st derivatives to the gradient.
 D1PCM: PCM CHGder 1st derivatives, ID1Alg=3 FixD1E=F DoIter=F DoCFld=F I1PDM=0.
 GePol: Maximum number of non-zero 1st derivatives   =     294
 Leave Link  701 at Mon May 16 17:33:47 2022, MaxMem=  2147483648 cpu:         8.0
 (Enter /gpfs/runtime/opt/gaussian/g09-D01/g09/l702.exe)
 L702 exits ... SP integral derivatives will be done elsewhere.
 Leave Link  702 at Mon May 16 17:33:47 2022, MaxMem=  2147483648 cpu:         0.2
 (Enter /gpfs/runtime/opt/gaussian/g09-D01/g09/l703.exe)
 Compute integral first derivatives, UseDBF=F ICtDFT=           0.
 Integral derivatives from FoFJK, PRISM(SPDF).
 Calling FoFJK, ICntrl=      2127 FMM=F ISym2X=0 I1Cent= 0 IOpClX= 0 NMat=1 NMatS=1 NMatT=0.
 FoFJK:  IHMeth= 1 ICntrl=    2127 DoSepK=F KAlg= 0 I1Cent=   0 FoldK=F
 IRaf=         0 NMat=   1 IRICut=       1 DoRegI=T DoRafI=F ISym2E= 0.
 FoFCou: FMM=F IPFlag=           0 FMFlag=      100000 FMFlg1=         800
         NFxFlg=           0 DoJE=F BraDBF=F KetDBF=F FulRan=T
         wScrn=  0.000000 ICntrl=    2127 IOpCl=  0 I1Cent=           0 NGrid=           0
         NMat0=    1 NMatS0=      1 NMatT0=    0 NMatD0=    1 NMtDS0=    0 NMtDT0=    0
 Symmetry not used in FoFCou.
 Leave Link  703 at Mon May 16 17:33:49 2022, MaxMem=  2147483648 cpu:        17.4
 (Enter /gpfs/runtime/opt/gaussian/g09-D01/g09/l716.exe)
 Dipole        =-7.15151859D+00 1.65306921D+00 4.00248927D-01
 ***** Axes restored to original set *****
 -------------------------------------------------------------------
 Center     Atomic                   Forces (Hartrees/Bohr)
 Number     Number              X              Y              Z
 -------------------------------------------------------------------
      1        6           0.019660192    0.002994026   -0.003186950
      2        6          -0.021810747    0.003999021   -0.008390800
      3        6           0.005341312   -0.003324435    0.017096013
      4        1          -0.002868856    0.006114805   -0.001570538
      5        6          -0.004595220    0.006801338   -0.003677073
      6        8           0.016491758    0.000008066   -0.004340731
      7        6          -0.019033303    0.010949482    0.002028554
      8        8           0.008712807   -0.007044129   -0.001856233
      9        8           0.002550563   -0.016555355   -0.000843181
     10        1           0.006210689   -0.000303113   -0.000308502
     11        1           0.005216204    0.001313750   -0.004677672
     12        1          -0.007554199   -0.001313936    0.005172311
     13        1          -0.005726251   -0.002057535    0.001721547
     14        1          -0.006034910   -0.002336959    0.002429960
     15        3           0.003439961    0.000754974    0.000403294
 -------------------------------------------------------------------
 Cartesian Forces:  Max     0.021810747 RMS     0.008015839
 Leave Link  716 at Mon May 16 17:33:49 2022, MaxMem=  2147483648 cpu:         0.2
 (Enter /gpfs/runtime/opt/gaussian/g09-D01/g09/l103.exe)

 GradGradGradGradGradGradGradGradGradGradGradGradGradGradGradGradGradGrad
 Berny optimization.
 FormGI is forming the generalized inverse of G from B-inverse, IUseBI=4.
 Internal  Forces:  Max     0.032270665 RMS     0.005852273
 Search for a local minimum.
 Step number   1 out of a maximum of   80
 All quantities printed in internal units (Hartrees-Bohrs-Radians)
 RMS Force = .58523D-02 SwitMx=.10000D-02 MixMth= 1
 Mixed Optimization -- RFO/linear search
 Second derivative matrix not updated -- first step.
 ITU=  0
     Eigenvalues ---    0.00518   0.00674   0.01450   0.01716   0.01870
     Eigenvalues ---    0.02923   0.03279   0.03279   0.04148   0.04640
     Eigenvalues ---    0.05205   0.05729   0.06082   0.07846   0.10661
     Eigenvalues ---    0.10769   0.15380   0.16000   0.16000   0.16000
     Eigenvalues ---    0.20528   0.22000   0.24660   0.25000   0.25000
     Eigenvalues ---    0.27794   0.31658   0.34803   0.34807   0.34819
     Eigenvalues ---    0.35380   0.35989   0.35994   0.36002   0.37096
     Eigenvalues ---    0.53055   0.56192   0.64487   0.97952
 RFO step:  Lambda=-8.98717221D-03 EMin= 5.17587768D-03
 Linear search not attempted -- first point.
 Iteration  1 RMS(Cart)=  0.05075400 RMS(Int)=  0.00136483
 Iteration  2 RMS(Cart)=  0.00145331 RMS(Int)=  0.00064070
 Iteration  3 RMS(Cart)=  0.00000128 RMS(Int)=  0.00064070
 Iteration  4 RMS(Cart)=  0.00000000 RMS(Int)=  0.00064070
 ITry= 1 IFail=0 DXMaxC= 1.74D-01 DCOld= 1.00D+10 DXMaxT= 3.00D-01 DXLimC= 3.00D+00 Rises=F
 Variable       Old X    -DE/DX   Delta X   Delta X   Delta X     New X
                                 (Linear)    (Quad)   (Total)
    R1        2.47557   0.03227   0.00000   0.04935   0.04935   2.52492
    R2        2.04091   0.00431   0.00000   0.01169   0.01169   2.05260
    R3        2.04078   0.00550   0.00000   0.01491   0.01491   2.05568
    R4        2.84773  -0.00466   0.00000  -0.01432  -0.01432   2.83341
    R5        2.04099   0.00644   0.00000   0.01747   0.01747   2.05846
    R6        2.05990   0.00031   0.00000   0.00087   0.00087   2.06077
    R7        2.91175   0.00315   0.00000   0.01335   0.01317   2.92493
    R8        2.75415  -0.00670   0.00000  -0.01633  -0.01632   2.73783
    R9        2.75416  -0.01149   0.00000  -0.03034  -0.03044   2.72372
   R10        2.05996  -0.00027   0.00000  -0.00076  -0.00076   2.05921
   R11        2.05970   0.00030   0.00000   0.00083   0.00083   2.06053
   R12        2.52699  -0.00325   0.00000  -0.00689  -0.00677   2.52023
   R13        2.29470  -0.01370   0.00000  -0.01386  -0.01386   2.28084
   R14        2.53254  -0.00351   0.00000  -0.00688  -0.00670   2.52584
   R15        6.01217  -0.00354   0.00000  -0.15094  -0.15094   5.86123
    A1        2.09433   0.00277   0.00000   0.01640   0.01638   2.11071
    A2        2.09445   0.00316   0.00000   0.01868   0.01866   2.11310
    A3        2.09440  -0.00594   0.00000  -0.03514  -0.03516   2.05924
    A4        2.09438   0.00921   0.00000   0.04023   0.03998   2.13435
    A5        2.09445   0.00215   0.00000   0.01984   0.01956   2.11401
    A6        2.09435  -0.01136   0.00000  -0.06007  -0.06031   2.03405
    A7        1.92837  -0.00299   0.00000  -0.00105  -0.00314   1.92523
    A8        1.92932   0.00872   0.00000   0.05819   0.05767   1.98699
    A9        1.92939   0.00002   0.00000  -0.00486  -0.00463   1.92477
   A10        1.92930   0.00176   0.00000   0.02566   0.02410   1.95340
   A11        1.92927  -0.00114   0.00000  -0.05233  -0.05206   1.87721
   A12        1.81553  -0.00638   0.00000  -0.02660  -0.02663   1.78890
   A13        1.81335   0.00076   0.00000   0.00514   0.00514   1.81849
   A14        1.92933   0.00484   0.00000   0.04189   0.04117   1.97049
   A15        1.92936   0.00448   0.00000   0.04424   0.04351   1.97288
   A16        1.92922  -0.00411   0.00000  -0.04571  -0.04593   1.88329
   A17        1.92940  -0.00435   0.00000  -0.04703  -0.04695   1.88245
   A18        1.93028  -0.00146   0.00000   0.00156  -0.00155   1.92874
   A19        1.90554   0.00526   0.00000   0.01891   0.01871   1.92425
   A20        2.14810   0.00322   0.00000   0.01348   0.01341   2.16151
   A21        1.98773  -0.00766   0.00000  -0.03166  -0.03156   1.95618
   A22        2.14735   0.00444   0.00000   0.01819   0.01812   2.16547
   A23        2.28386  -0.00169   0.00000  -0.00651  -0.00651   2.27735
   A24        1.90262   0.00801   0.00000   0.03419   0.03422   1.93684
    D1        3.14157   0.00183   0.00000   0.05178   0.05233  -3.08928
    D2        0.00000   0.00071   0.00000   0.00903   0.00847   0.00847
    D3       -0.00484   0.00127   0.00000   0.03851   0.03907   0.03422
    D4        3.13677   0.00016   0.00000  -0.00424  -0.00479   3.13198
    D5       -0.01224  -0.00376   0.00000  -0.06817  -0.06768  -0.07992
    D6        2.12900   0.00238   0.00000   0.00348   0.00388   2.13288
    D7       -2.15350  -0.00027   0.00000   0.00225   0.00253  -2.15096
    D8        3.12933  -0.00264   0.00000  -0.02542  -0.02571   3.10362
    D9       -1.01261   0.00350   0.00000   0.04623   0.04585  -0.96677
   D10        0.98808   0.00084   0.00000   0.04500   0.04450   1.03258
   D11        2.07010  -0.00093   0.00000  -0.00357  -0.00395   2.06615
   D12       -2.14319  -0.00298   0.00000  -0.03395  -0.03508  -2.17827
   D13       -0.00002   0.00157   0.00000   0.02722   0.02722   0.02720
   D14       -2.07238   0.00246   0.00000   0.05255   0.05337  -2.01901
   D15       -0.00249   0.00041   0.00000   0.02217   0.02224   0.01975
   D16        2.14068   0.00496   0.00000   0.08334   0.08455   2.22523
   D17       -0.00122  -0.00162   0.00000  -0.01136  -0.01109  -0.01231
   D18        2.06868  -0.00367   0.00000  -0.04174  -0.04222   2.02645
   D19       -2.07134   0.00088   0.00000   0.01943   0.02008  -2.05125
   D20       -2.06910  -0.00469   0.00000  -0.03829  -0.03777  -2.10687
   D21        2.07336  -0.00013   0.00000   0.00223   0.00280   2.07615
   D22        0.00217   0.00197   0.00000   0.01270   0.01255   0.01471
   D23       -0.00011   0.00079   0.00000   0.00658   0.00660   0.00649
   D24       -2.07007  -0.00331   0.00000  -0.02323  -0.02190  -2.09197
   D25        2.06999   0.00436   0.00000   0.03851   0.03732   2.10731
   D26       -3.14092   0.00012   0.00000   0.00974   0.00960  -3.13133
   D27        0.00159   0.00046   0.00000   0.00138   0.00119   0.00278
   D28       -0.45881   0.00071   0.00000   0.00572   0.00558  -0.45323
   D29        2.68178   0.00033   0.00000   0.01482   0.01496   2.69674
   D30       -0.00245  -0.00161   0.00000  -0.00943  -0.00933  -0.01178
   D31        3.14007  -0.00127   0.00000  -0.01778  -0.01776   3.12231
         Item               Value     Threshold  Converged?
 Maximum Force            0.032271     0.000450     NO 
 RMS     Force            0.005852     0.000300     NO 
 Maximum Displacement     0.173995     0.001800     NO 
 RMS     Displacement     0.050620     0.001200     NO 
 Predicted change in Energy=-4.903884D-03
 Lowest energy point so far.  Saving SCF results.
 GradGradGradGradGradGradGradGradGradGradGradGradGradGradGradGradGradGrad

 Leave Link  103 at Mon May 16 17:33:50 2022, MaxMem=  2147483648 cpu:         4.4
 (Enter /gpfs/runtime/opt/gaussian/g09-D01/g09/l202.exe)
                          Input orientation:                          
 ---------------------------------------------------------------------
 Center     Atomic      Atomic             Coordinates (Angstroms)
 Number     Number       Type             X           Y           Z
 ---------------------------------------------------------------------
      1          6           0        3.152471    0.448520    0.059563
      2          6           0        1.901176    0.244880    0.481513
      3          6           0        0.788483   -0.116479   -0.456285
      4          1           0        1.142369   -0.099939   -1.487649
      5          6           0        0.085022   -1.450489   -0.108061
      6          8           0       -1.278519   -1.070534    0.163644
      7          6           0       -1.429875    0.245805    0.012128
      8          8           0       -2.472594    0.827350    0.189098
      9          8           0       -0.290615    0.844283   -0.349060
     10          1           0        3.951416    0.662007    0.763773
     11          1           0        3.405417    0.389225   -0.996779
     12          1           0        1.648667    0.295290    1.539929
     13          1           0        0.077151   -2.155267   -0.939107
     14          1           0        0.485726   -1.922604    0.789427
     15          3           0       -5.399195   -0.180447   -0.009533
 ---------------------------------------------------------------------
                    Distance matrix (angstroms):
                    1          2          3          4          5
     1  C    0.000000
     2  C    1.336133   0.000000
     3  C    2.484705   1.499376   0.000000
     4  H    2.595223   2.138291   1.090514   0.000000
     5  C    3.611589   2.553485   1.547805   2.201188   0.000000
     6  O    4.685299   3.455693   2.359456   3.086992   1.441331
     7  C    4.587072   3.363959   2.296034   2.997550   2.277449
     8  O    5.639295   4.422063   3.455714   4.091369   3.437769
     9  O    3.489762   2.419314   1.448797   2.059461   2.337768
    10  H    1.086187   2.111197   3.478322   3.679703   4.491296
    11  H    1.087821   2.113983   2.719598   2.366775   3.898639
    12  H    2.115748   1.089288   2.212315   3.094960   2.865065
    13  H    4.151463   3.332557   2.212638   2.379067   1.089684
    14  H    3.642315   2.606971   2.214847   2.989709   1.090386
    15  Li   8.575043   7.329218   6.204114   6.706963   5.630217
                    6          7          8          9         10
     6  O    0.000000
     7  C    1.333647   0.000000
     8  O    2.242415   1.206970   0.000000
     9  O    2.214801   1.336617   2.247429   0.000000
    10  H    5.542028   5.449448   6.451783   4.389356   0.000000
    11  H    5.041501   4.941509   6.012427   3.779850   1.863348
    12  H    3.511133   3.437156   4.369511   2.762334   2.457551
    13  H    2.056830   2.990171   4.082898   3.079076   5.083971
    14  H    2.056743   2.995950   4.083418   3.091039   4.323411
    15  Li   4.219266   3.992200   3.101628   5.221393   9.420279
                   11         12         13         14         15
    11  H    0.000000
    12  H    3.087051   0.000000
    13  H    4.189883   3.823678   0.000000
    14  H    4.130337   2.614333   1.791339   0.000000
    15  Li   8.878083   7.231840   5.895285   6.189163   0.000000
 Stoichiometry    C5H6LiO3(1+)
 Framework group  C1[X(C5H6LiO3)]
 Deg. of freedom    39
 Full point group                 C1      NOp   1
 RotChk:  IX=0 Diff= 1.42D-02
 Largest Abelian subgroup         C1      NOp   1
 Largest concise Abelian subgroup C1      NOp   1
                         Standard orientation:                         
 ---------------------------------------------------------------------
 Center     Atomic      Atomic             Coordinates (Angstroms)
 Number     Number       Type             X           Y           Z
 ---------------------------------------------------------------------
      1          6           0        3.336412   -0.397880   -0.048122
      2          6           0        2.081049   -0.238959   -0.477141
      3          6           0        0.957043    0.116957    0.449177
      4          1           0        1.308983    0.136965    1.481145
      5          6           0        0.218943    1.422057    0.064961
      6          8           0       -1.133358    0.998730   -0.198692
      7          6           0       -1.249807   -0.316761   -0.012852
      8          8           0       -2.276221   -0.930460   -0.176026
      9          8           0       -0.095753   -0.874837    0.365638
     10          1           0        4.142319   -0.608301   -0.745286
     11          1           0        3.585368   -0.304139    1.006671
     12          1           0        1.832297   -0.323864   -1.534241
     13          1           0        0.190416    2.147934    0.877181
     14          1           0        0.608850    1.881023   -0.844030
     15          3           0       -5.229140    0.003477   -0.008311
 ---------------------------------------------------------------------
 Rotational constants (GHZ):      5.3115205      0.9011247      0.8102802
 Leave Link  202 at Mon May 16 17:33:50 2022, MaxMem=  2147483648 cpu:         0.4
 (Enter /gpfs/runtime/opt/gaussian/g09-D01/g09/l301.exe)
 Standard basis: 6-31+G(d,p) (6D, 7F)
 Ernie: Thresh=  0.10000D-02 Tol=  0.10000D-05 Strict=F.
 There are   201 symmetry adapted cartesian basis functions of A   symmetry.
 There are   201 symmetry adapted basis functions of A   symmetry.
   201 basis functions,   330 primitive gaussians,   201 cartesian basis functions
    31 alpha electrons       31 beta electrons
       nuclear repulsion energy       391.1010329024 Hartrees.
 IExCor= 4336 DFT=T Ex+Corr=M062X ExCW=0 ScaHFX=  0.540000
 ScaDFX=  1.000000  1.000000  1.000000  1.000000 ScalE2=  1.000000  1.000000
 IRadAn=      0 IRanWt=     -1 IRanGd=            0 ICorTp=0 IEmpDi=131
 NAtoms=   15 NActive=   15 NUniq=   15 SFac= 1.00D+00 NAtFMM=   60 NAOKFM=F Big=F
 Integral buffers will be    131072 words long.
 Raffenetti 2 integral format.
 Two-electron integral symmetry is turned on.
 R6Disp:  Grimme-D3 Dispersion energy=       -0.0004826727 Hartrees.
 Nuclear repulsion after empirical dispersion term =      391.1005502297 Hartrees.
 ------------------------------------------------------------------------------
 Polarizable Continuum Model (PCM)
 =================================
 Model                : PCM (using non-symmetric T matrix).
 Atomic radii         : SMD-Coulomb.
 Polarization charges : Total charges.
 Charge compensation  : None.
 Solution method      : On-the-fly selection.
 Cavity type          : VdW (van der Waals Surface) (Alpha=1.000).
 Cavity algorithm     : GePol (No added spheres)
                        Default sphere list used, NSphG=   15.
                        Lebedev-Laikov grids with approx.  5.0 points / Ang**2.
                        Smoothing algorithm: Karplus/York (Gamma=1.0000).
                        Polarization charges: spherical gaussians, with
                                              point-specific exponents (IZeta= 3).
                        Self-potential: point-specific (ISelfS= 7).
                        Self-field    : sphere-specific E.n sum rule (ISelfD= 2).
 1st derivatives      : Analytical E(r).r(x)/FMM algorithm (CHGder, D1EAlg=3).
                        Cavity 1st derivative terms included.
 Solvent              : DiMethylSulfoxide, Eps=  46.826000 Eps(inf)=   2.007889
 ------------------------------------------------------------------------------
 Spheres list:
 ISph  on   Nord     Re0    Alpha      Xe            Ye            Ze
    1   C      1    1.8500  1.000      3.336412     -0.397880     -0.048122
    2   C      2    1.8500  1.000      2.081049     -0.238959     -0.477141
    3   C      3    1.8500  1.000      0.957043      0.116957      0.449177
    4   H      4    1.2000  1.000      1.308983      0.136965      1.481145
    5   C      5    1.8500  1.000      0.218943      1.422057      0.064961
    6   O      6    2.2940  1.000     -1.133358      0.998730     -0.198692
    7   C      7    1.8500  1.000     -1.249807     -0.316761     -0.012852
    8   O      8    2.2940  1.000     -2.276221     -0.930460     -0.176026
    9   O      9    2.2940  1.000     -0.095753     -0.874837      0.365638
   10   H     10    1.2000  1.000      4.142319     -0.608301     -0.745286
   11   H     11    1.2000  1.000      3.585368     -0.304139      1.006671
   12   H     12    1.2000  1.000      1.832297     -0.323864     -1.534241
   13   H     13    1.2000  1.000      0.190416      2.147934      0.877181
   14   H     14    1.2000  1.000      0.608850      1.881023     -0.844030
   15  Li     15    1.8200  1.000     -5.229140      0.003477     -0.008311
 ------------------------------------------------------------------------------
 GePol: Number of generator spheres                  =      15
 GePol: Total number of spheres                      =      15
 GePol: Number of exposed spheres                    =      15 (100.00%)
 GePol: Number of points                             =    1575
 GePol: Average weight of points                     =       0.12
 GePol: Minimum weight of points                     =   0.11D-10
 GePol: Maximum weight of points                     =    0.17992
 GePol: Number of points with low weight             =      61
 GePol: Fraction of low-weight points (<1% of avg)   =       3.87%
 GePol: Cavity surface area                          =    195.697 Ang**2
 GePol: Cavity volume                                =    179.596 Ang**3
 ------------------------------------------------------------------------------
 Atomic radii for non-electrostatic terms: SMD-CDS.
 ------------------------------------------------------------------------------
 PCM non-electrostatic energy =         0.0017168914 Hartrees.
 Nuclear repulsion after PCM non-electrostatic terms =      391.1022671211 Hartrees.
 Leave Link  301 at Mon May 16 17:33:50 2022, MaxMem=  2147483648 cpu:         0.4
 (Enter /gpfs/runtime/opt/gaussian/g09-D01/g09/l302.exe)
 NPDir=0 NMtPBC=     1 NCelOv=     1 NCel=       1 NClECP=     1 NCelD=      1
         NCelK=      1 NCelE2=     1 NClLst=     1 CellRange=     0.0.
 One-electron integrals computed using PRISM.
 NBasis=   201 RedAO= T EigKep=  2.73D-05  NBF=   201
 NBsUse=   201 1.00D-06 EigRej= -1.00D+00 NBFU=   201
 Precomputing XC quadrature grid using
 IXCGrd= 4 IRadAn=           0 IRanWt=          -1 IRanGd=           0 AccXCQ= 0.00D+00.
 Generated NRdTot=       0 NPtTot=           0 NUsed=           0 NTot=          32
 NSgBfM=   201   201   201   201   201 MxSgAt=    15 MxSgA2=    15.
 Leave Link  302 at Mon May 16 17:33:50 2022, MaxMem=  2147483648 cpu:         1.0
 (Enter /gpfs/runtime/opt/gaussian/g09-D01/g09/l303.exe)
 DipDrv:  MaxL=1.
 Leave Link  303 at Mon May 16 17:33:50 2022, MaxMem=  2147483648 cpu:         0.2
 (Enter /gpfs/runtime/opt/gaussian/g09-D01/g09/l401.exe)
 Initial guess from the checkpoint file:  "/gpfs/data/yqi27/cgu13/CHEM1560Q/Gaussian/4427-96-7/inp4/Gau-122398.chk"
 B after Tr=     0.000000    0.000000    0.000000
         Rot=    0.999986    0.003924   -0.000246   -0.003441 Ang=   0.60 deg.
 Guess basis will be translated and rotated to current coordinates.
 JPrj=2 DoOrth=T DoCkMO=T.
 Generating alternative initial guess.
 ExpMin= 7.40D-03 ExpMax= 5.48D+03 ExpMxC= 8.25D+02 IAcc=3 IRadAn=         5 AccDes= 0.00D+00
 Harris functional with IExCor= 1009 and IRadAn=       5 diagonalized for initial guess.
 HarFok:  IExCor= 1009 AccDes= 0.00D+00 IRadAn=         5 IDoV= 1 UseB2=F ITyADJ=14
 ICtDFT=  3500011 ScaDFX=  1.000000  1.000000  1.000000  1.000000
 FoFCou: FMM=F IPFlag=           0 FMFlag=      100000 FMFlg1=           0
         NFxFlg=           0 DoJE=T BraDBF=F KetDBF=T FulRan=T
         wScrn=  0.000000 ICntrl=     500 IOpCl=  0 I1Cent=   200000004 NGrid=           0
         NMat0=    1 NMatS0=      1 NMatT0=    0 NMatD0=    1 NMtDS0=    0 NMtDT0=    0
 Petite list used in FoFCou.
 Harris En= -426.793795359284    
 Leave Link  401 at Mon May 16 17:33:51 2022, MaxMem=  2147483648 cpu:         5.9
 (Enter /gpfs/runtime/opt/gaussian/g09-D01/g09/l502.exe)
 Closed shell SCF:
 Using DIIS extrapolation, IDIIS=  1040.
 Integral symmetry usage will be decided dynamically.
 Keep R1 ints in memory in canonical form, NReq=212011664.
 IVT=      142861 IEndB=      142861 NGot=  2147483648 MDV=  1941265337
 LenX=  1941265337 LenY=  1941224495
 Requested convergence on RMS density matrix=1.00D-08 within 128 cycles.
 Requested convergence on MAX density matrix=1.00D-06.
 Requested convergence on             energy=1.00D-06.
 No special actions if energy rises.
 FoFCou: FMM=F IPFlag=           0 FMFlag=           0 FMFlg1=           0
         NFxFlg=           0 DoJE=F BraDBF=F KetDBF=F FulRan=T
         wScrn=  0.000000 ICntrl=     600 IOpCl=  0 I1Cent=           0 NGrid=           0
         NMat0=    1 NMatS0=  20301 NMatT0=    0 NMatD0=    1 NMtDS0=    0 NMtDT0=    0
 Symmetry not used in FoFCou.

 Cycle   1  Pass 1  IDiag  1:
 Inv3:  Mode=1 IEnd=     7441875.
 Iteration    1 A*A^-1 deviation from unit magnitude is 6.22D-15 for   1051.
 Iteration    1 A*A^-1 deviation from orthogonality  is 5.36D-15 for    782    273.
 Iteration    1 A^-1*A deviation from unit magnitude is 7.33D-15 for    107.
 Iteration    1 A^-1*A deviation from orthogonality  is 7.33D-14 for    921    917.
 E= -427.083755572005    
 DIIS: error= 1.49D-03 at cycle   1 NSaved=   1.
 NSaved= 1 IEnMin= 1 EnMin= -427.083755572005     IErMin= 1 ErrMin= 1.49D-03
 ErrMax= 1.49D-03  0.00D+00 EMaxC= 1.00D-01 BMatC= 1.49D-03 BMatP= 1.49D-03
 IDIUse=3 WtCom= 9.85D-01 WtEn= 1.49D-02
 Coeff-Com:  0.100D+01
 Coeff-En:   0.100D+01
 Coeff:      0.100D+01
 Gap=     0.650 Goal=   None    Shift=    0.000
 GapD=    0.650 DampG=2.000 DampE=1.000 DampFc=2.0000 IDamp=-1.
 RMSDP=8.84D-04 MaxDP=3.38D-02              OVMax= 1.01D-02

 Cycle   2  Pass 1  IDiag  1:
 E= -427.085941940904     Delta-E=       -0.002186368898 Rises=F Damp=F
 DIIS: error= 4.31D-04 at cycle   2 NSaved=   2.
 NSaved= 2 IEnMin= 2 EnMin= -427.085941940904     IErMin= 2 ErrMin= 4.31D-04
 ErrMax= 4.31D-04  0.00D+00 EMaxC= 1.00D-01 BMatC= 1.10D-04 BMatP= 1.49D-03
 IDIUse=3 WtCom= 9.96D-01 WtEn= 4.31D-03
 Coeff-Com:  0.223D-01 0.978D+00
 Coeff-En:   0.000D+00 0.100D+01
 Coeff:      0.222D-01 0.978D+00
 Gap=     0.321 Goal=   None    Shift=    0.000
 RMSDP=1.53D-04 MaxDP=5.64D-03 DE=-2.19D-03 OVMax= 3.78D-03

 Cycle   3  Pass 1  IDiag  1:
 E= -427.086027246222     Delta-E=       -0.000085305319 Rises=F Damp=F
 DIIS: error= 3.38D-04 at cycle   3 NSaved=   3.
 NSaved= 3 IEnMin= 3 EnMin= -427.086027246222     IErMin= 3 ErrMin= 3.38D-04
 ErrMax= 3.38D-04  0.00D+00 EMaxC= 1.00D-01 BMatC= 7.48D-05 BMatP= 1.10D-04
 IDIUse=3 WtCom= 9.97D-01 WtEn= 3.38D-03
 Coeff-Com: -0.575D-01 0.464D+00 0.593D+00
 Coeff-En:   0.000D+00 0.812D-01 0.919D+00
 Coeff:     -0.573D-01 0.463D+00 0.594D+00
 Gap=     0.319 Goal=   None    Shift=    0.000
 RMSDP=6.30D-05 MaxDP=2.33D-03 DE=-8.53D-05 OVMax= 2.30D-03

 Cycle   4  Pass 1  IDiag  1:
 E= -427.086086348854     Delta-E=       -0.000059102632 Rises=F Damp=F
 DIIS: error= 9.98D-05 at cycle   4 NSaved=   4.
 NSaved= 4 IEnMin= 4 EnMin= -427.086086348854     IErMin= 4 ErrMin= 9.98D-05
 ErrMax= 9.98D-05  0.00D+00 EMaxC= 1.00D-01 BMatC= 6.30D-06 BMatP= 7.48D-05
 IDIUse=1 WtCom= 1.00D+00 WtEn= 0.00D+00
 Coeff-Com: -0.270D-01 0.113D+00 0.269D+00 0.645D+00
 Coeff:     -0.270D-01 0.113D+00 0.269D+00 0.645D+00
 Gap=     0.319 Goal=   None    Shift=    0.000
 RMSDP=1.86D-05 MaxDP=5.88D-04 DE=-5.91D-05 OVMax= 6.15D-04

 Cycle   5  Pass 1  IDiag  1:
 E= -427.086091065032     Delta-E=       -0.000004716178 Rises=F Damp=F
 DIIS: error= 2.92D-05 at cycle   5 NSaved=   5.
 NSaved= 5 IEnMin= 5 EnMin= -427.086091065032     IErMin= 5 ErrMin= 2.92D-05
 ErrMax= 2.92D-05  0.00D+00 EMaxC= 1.00D-01 BMatC= 5.86D-07 BMatP= 6.30D-06
 IDIUse=1 WtCom= 1.00D+00 WtEn= 0.00D+00
 Coeff-Com: -0.351D-02-0.141D-01 0.352D-01 0.266D+00 0.716D+00
 Coeff:     -0.351D-02-0.141D-01 0.352D-01 0.266D+00 0.716D+00
 Gap=     0.319 Goal=   None    Shift=    0.000
 RMSDP=8.14D-06 MaxDP=4.33D-04 DE=-4.72D-06 OVMax= 2.15D-04

 Cycle   6  Pass 1  IDiag  1:
 E= -427.086091679449     Delta-E=       -0.000000614416 Rises=F Damp=F
 DIIS: error= 6.72D-06 at cycle   6 NSaved=   6.
 NSaved= 6 IEnMin= 6 EnMin= -427.086091679449     IErMin= 6 ErrMin= 6.72D-06
 ErrMax= 6.72D-06  0.00D+00 EMaxC= 1.00D-01 BMatC= 3.80D-08 BMatP= 5.86D-07
 IDIUse=1 WtCom= 1.00D+00 WtEn= 0.00D+00
 Coeff-Com:  0.132D-02-0.154D-01-0.135D-01 0.257D-01 0.228D+00 0.774D+00
 Coeff:      0.132D-02-0.154D-01-0.135D-01 0.257D-01 0.228D+00 0.774D+00
 Gap=     0.319 Goal=   None    Shift=    0.000
 RMSDP=2.40D-06 MaxDP=1.10D-04 DE=-6.14D-07 OVMax= 7.56D-05

 Cycle   7  Pass 1  IDiag  1:
 E= -427.086091718784     Delta-E=       -0.000000039336 Rises=F Damp=F
 DIIS: error= 3.13D-06 at cycle   7 NSaved=   7.
 NSaved= 7 IEnMin= 7 EnMin= -427.086091718784     IErMin= 7 ErrMin= 3.13D-06
 ErrMax= 3.13D-06  0.00D+00 EMaxC= 1.00D-01 BMatC= 8.76D-09 BMatP= 3.80D-08
 IDIUse=1 WtCom= 1.00D+00 WtEn= 0.00D+00
 Coeff-Com:  0.992D-03-0.585D-02-0.105D-01-0.176D-01 0.337D-01 0.379D+00
 Coeff-Com:  0.620D+00
 Coeff:      0.992D-03-0.585D-02-0.105D-01-0.176D-01 0.337D-01 0.379D+00
 Coeff:      0.620D+00
 Gap=     0.319 Goal=   None    Shift=    0.000
 RMSDP=8.50D-07 MaxDP=4.32D-05 DE=-3.93D-08 OVMax= 2.33D-05

 Cycle   8  Pass 1  IDiag  1:
 E= -427.086091727623     Delta-E=       -0.000000008839 Rises=F Damp=F
 DIIS: error= 6.82D-07 at cycle   8 NSaved=   8.
 NSaved= 8 IEnMin= 8 EnMin= -427.086091727623     IErMin= 8 ErrMin= 6.82D-07
 ErrMax= 6.82D-07  0.00D+00 EMaxC= 1.00D-01 BMatC= 3.38D-10 BMatP= 8.76D-09
 IDIUse=1 WtCom= 1.00D+00 WtEn= 0.00D+00
 Coeff-Com:  0.571D-04 0.566D-03-0.603D-03-0.678D-02-0.167D-01-0.120D-01
 Coeff-Com:  0.123D+00 0.913D+00
 Coeff:      0.571D-04 0.566D-03-0.603D-03-0.678D-02-0.167D-01-0.120D-01
 Coeff:      0.123D+00 0.913D+00
 Gap=     0.319 Goal=   None    Shift=    0.000
 RMSDP=2.74D-07 MaxDP=7.93D-06 DE=-8.84D-09 OVMax= 1.44D-05

 Cycle   9  Pass 1  IDiag  1:
 E= -427.086091728182     Delta-E=       -0.000000000559 Rises=F Damp=F
 DIIS: error= 4.00D-07 at cycle   9 NSaved=   9.
 NSaved= 9 IEnMin= 9 EnMin= -427.086091728182     IErMin= 9 ErrMin= 4.00D-07
 ErrMax= 4.00D-07  0.00D+00 EMaxC= 1.00D-01 BMatC= 1.04D-10 BMatP= 3.38D-10
 IDIUse=1 WtCom= 1.00D+00 WtEn= 0.00D+00
 Coeff-Com: -0.830D-04 0.936D-03 0.894D-03-0.141D-02-0.116D-01-0.479D-01
 Coeff-Com: -0.790D-02 0.435D+00 0.632D+00
 Coeff:     -0.830D-04 0.936D-03 0.894D-03-0.141D-02-0.116D-01-0.479D-01
 Coeff:     -0.790D-02 0.435D+00 0.632D+00
 Gap=     0.319 Goal=   None    Shift=    0.000
 RMSDP=9.71D-08 MaxDP=2.42D-06 DE=-5.59D-10 OVMax= 4.54D-06

 Cycle  10  Pass 1  IDiag  1:
 E= -427.086091728291     Delta-E=       -0.000000000109 Rises=F Damp=F
 DIIS: error= 9.05D-08 at cycle  10 NSaved=  10.
 NSaved=10 IEnMin=10 EnMin= -427.086091728291     IErMin=10 ErrMin= 9.05D-08
 ErrMax= 9.05D-08  0.00D+00 EMaxC= 1.00D-01 BMatC= 7.47D-12 BMatP= 1.04D-10
 IDIUse=1 WtCom= 1.00D+00 WtEn= 0.00D+00
 Coeff-Com: -0.335D-04 0.197D-03 0.360D-03 0.548D-03-0.102D-02-0.126D-01
 Coeff-Com: -0.199D-01-0.741D-02 0.191D+00 0.849D+00
 Coeff:     -0.335D-04 0.197D-03 0.360D-03 0.548D-03-0.102D-02-0.126D-01
 Coeff:     -0.199D-01-0.741D-02 0.191D+00 0.849D+00
 Gap=     0.319 Goal=   None    Shift=    0.000
 RMSDP=3.62D-08 MaxDP=1.31D-06 DE=-1.09D-10 OVMax= 2.52D-06

 Cycle  11  Pass 1  IDiag  1:
 E= -427.086091728284     Delta-E=        0.000000000007 Rises=F Damp=F
 DIIS: error= 4.15D-08 at cycle  11 NSaved=  11.
 NSaved=11 IEnMin=10 EnMin= -427.086091728291     IErMin=11 ErrMin= 4.15D-08
 ErrMax= 4.15D-08  0.00D+00 EMaxC= 1.00D-01 BMatC= 9.59D-13 BMatP= 7.47D-12
 IDIUse=1 WtCom= 1.00D+00 WtEn= 0.00D+00
 Coeff-Com: -0.121D-05-0.417D-04 0.153D-04 0.327D-03 0.951D-03 0.150D-02
 Coeff-Com: -0.540D-02-0.509D-01-0.787D-02 0.288D+00 0.773D+00
 Coeff:     -0.121D-05-0.417D-04 0.153D-04 0.327D-03 0.951D-03 0.150D-02
 Coeff:     -0.540D-02-0.509D-01-0.787D-02 0.288D+00 0.773D+00
 Gap=     0.319 Goal=   None    Shift=    0.000
 RMSDP=1.14D-08 MaxDP=3.01D-07 DE= 6.82D-12 OVMax= 8.18D-07

 Cycle  12  Pass 1  IDiag  1:
 E= -427.086091728298     Delta-E=       -0.000000000014 Rises=F Damp=F
 DIIS: error= 1.01D-08 at cycle  12 NSaved=  12.
 NSaved=12 IEnMin=12 EnMin= -427.086091728298     IErMin=12 ErrMin= 1.01D-08
 ErrMax= 1.01D-08  0.00D+00 EMaxC= 1.00D-01 BMatC= 9.10D-14 BMatP= 9.59D-13
 IDIUse=1 WtCom= 1.00D+00 WtEn= 0.00D+00
 Coeff-Com:  0.388D-05-0.371D-04-0.406D-04 0.242D-04 0.396D-03 0.207D-02
 Coeff-Com:  0.894D-03-0.141D-01-0.273D-01-0.310D-01 0.208D+00 0.861D+00
 Coeff:      0.388D-05-0.371D-04-0.406D-04 0.242D-04 0.396D-03 0.207D-02
 Coeff:      0.894D-03-0.141D-01-0.273D-01-0.310D-01 0.208D+00 0.861D+00
 Gap=     0.319 Goal=   None    Shift=    0.000
 RMSDP=4.37D-09 MaxDP=1.05D-07 DE=-1.35D-11 OVMax= 3.36D-07

 Error on total polarization charges =  0.02178
 SCF Done:  E(RM062X) =  -427.086091728     A.U. after   12 cycles
            NFock= 12  Conv=0.44D-08     -V/T= 2.0088
 KE= 4.233445507053D+02 PE=-1.772163598168D+03 EE= 5.306306886132D+02
 SMD-CDS (non-electrostatic) energy       (kcal/mol) =       1.08
 (included in total energy above)
 Leave Link  502 at Mon May 16 17:34:06 2022, MaxMem=  2147483648 cpu:        91.6
 (Enter /gpfs/runtime/opt/gaussian/g09-D01/g09/l701.exe)
 Compute integral first derivatives.
 ... and contract with generalized density number  0.
 R6Disp: Adding Grimme-D3 dispersion energy 1st derivatives to the gradient.
 D1PCM: PCM CHGder 1st derivatives, ID1Alg=3 FixD1E=F DoIter=F DoCFld=F I1PDM=0.
 GePol: Maximum number of non-zero 1st derivatives   =     292
 Leave Link  701 at Mon May 16 17:34:07 2022, MaxMem=  2147483648 cpu:         4.5
 (Enter /gpfs/runtime/opt/gaussian/g09-D01/g09/l702.exe)
 L702 exits ... SP integral derivatives will be done elsewhere.
 Leave Link  702 at Mon May 16 17:34:07 2022, MaxMem=  2147483648 cpu:         0.1
 (Enter /gpfs/runtime/opt/gaussian/g09-D01/g09/l703.exe)
 Compute integral first derivatives, UseDBF=F ICtDFT=           0.
 Integral derivatives from FoFJK, PRISM(SPDF).
 Calling FoFJK, ICntrl=      2127 FMM=F ISym2X=0 I1Cent= 0 IOpClX= 0 NMat=1 NMatS=1 NMatT=0.
[...]
 ! A7    A(2,3,4)              111.5866         -DE/DX =    0.0                 !
 ! A8    A(2,3,5)              114.7402         -DE/DX =    0.0                 !
 ! A9    A(2,3,9)              110.0173         -DE/DX =    0.0                 !
 ! A10   A(4,3,5)              111.9366         -DE/DX =    0.0                 !
 ! A11   A(4,3,9)              106.6415         -DE/DX =    0.0                 !
 ! A12   A(5,3,9)              101.1083         -DE/DX =    0.0                 !
 ! A13   A(3,5,6)              102.7342         -DE/DX =    0.0                 !
 ! A14   A(3,5,13)             113.3534         -DE/DX =    0.0                 !
 ! A15   A(3,5,14)             112.6207         -DE/DX =    0.0                 !
 ! A16   A(6,5,13)             108.5447         -DE/DX =    0.0                 !
 ! A17   A(6,5,14)             107.8837         -DE/DX =    0.0                 !
 ! A18   A(13,5,14)            111.1524         -DE/DX =    0.0                 !
 ! A19   A(5,6,7)              108.6207         -DE/DX =    0.0                 !
 ! A20   A(6,7,8)              123.663          -DE/DX =    0.0                 !
 ! A21   A(6,7,9)              113.1357         -DE/DX =    0.0                 !
 ! A22   A(8,7,9)              123.2011         -DE/DX =    0.0                 !
 ! A23   A(7,8,15)             140.1067         -DE/DX =    0.0                 !
 ! A24   A(3,9,7)              109.0071         -DE/DX =    0.0                 !
 ! D1    D(10,1,2,3)          -178.0732         -DE/DX =    0.0                 !
 ! D2    D(10,1,2,12)            0.0233         -DE/DX =    0.0                 !
 ! D3    D(11,1,2,3)             1.5895         -DE/DX =    0.0                 !
 ! D4    D(11,1,2,12)          179.686          -DE/DX =    0.0                 !
 ! D5    D(1,2,3,4)             -4.0764         -DE/DX =    0.0                 !
 ! D6    D(1,2,3,5)            124.5824         -DE/DX =    0.0                 !
 ! D7    D(1,2,3,9)           -122.2359         -DE/DX =    0.0                 !
 ! D8    D(12,2,3,4)           177.7284         -DE/DX =    0.0                 !
 ! D9    D(12,2,3,5)           -53.6128         -DE/DX =    0.0                 !
 ! D10   D(12,2,3,9)            59.5689         -DE/DX =    0.0                 !
 ! D11   D(2,3,5,6)            140.6214         -DE/DX =    0.0                 !
 ! D12   D(2,3,5,13)          -102.4593         -DE/DX =    0.0                 !
 ! D13   D(2,3,5,14)            24.8213         -DE/DX =    0.0                 !
 ! D14   D(4,3,5,6)            -90.8951         -DE/DX =    0.0                 !
 ! D15   D(4,3,5,13)            26.0242         -DE/DX =    0.0                 !
 ! D16   D(4,3,5,14)           153.3048         -DE/DX =    0.0                 !
 ! D17   D(9,3,5,6)             22.2902         -DE/DX =    0.0                 !
 ! D18   D(9,3,5,13)           139.2094         -DE/DX =    0.0                 !
 ! D19   D(9,3,5,14)           -93.5099         -DE/DX =    0.0                 !
 ! D20   D(2,3,9,7)           -140.8589         -DE/DX =    0.0                 !
 ! D21   D(4,3,9,7)             97.9716         -DE/DX =    0.0                 !
 ! D22   D(5,3,9,7)            -19.1605         -DE/DX =    0.0                 !
 ! D23   D(3,5,6,7)            -19.2598         -DE/DX =    0.0                 !
 ! D24   D(13,5,6,7)          -139.5556         -DE/DX =    0.0                 !
 ! D25   D(14,5,6,7)            99.9015         -DE/DX =    0.0                 !
 ! D26   D(5,6,7,8)           -172.3391         -DE/DX =    0.0                 !
 ! D27   D(5,6,7,9)              7.8202         -DE/DX =    0.0                 !
 ! D28   D(6,7,8,15)            -0.1286         -DE/DX =    0.0                 !
 ! D29   D(9,7,8,15)           179.6964         -DE/DX =    0.0                 !
 ! D30   D(6,7,9,3)              8.1364         -DE/DX =    0.0                 !
 ! D31   D(8,7,9,3)           -171.7051         -DE/DX =    0.0                 !
 --------------------------------------------------------------------------------
 GradGradGradGradGradGradGradGradGradGradGradGradGradGradGradGradGradGrad

 Leave Link  103 at Mon May 16 17:41:46 2022, MaxMem=  2147483648 cpu:         3.3
 (Enter /gpfs/runtime/opt/gaussian/g09-D01/g09/l9999.exe)
 1\1\GINC-NODE1319\Freq\RM062X\6-31+G(d,p)\C5H6Li1O3(1+)\ROOT\16-May-20
 22\0\\#P Geom=AllCheck Guess=TCheck SCRF=Check GenChk RM062X/6-31+G(d,
 p) Freq\\4427-96-7\\1,1\C,3.0714366312,0.5031838934,-0.0095526643\C,1.
 8845396141,0.1919524318,0.50658636\C,0.707555485,-0.128136782,-0.34996
 67833\H,0.9362739293,-0.0014427408,-1.4114263479\C,0.0561283678,-1.483
 3300094,-0.063136196\O,-1.3583518027,-1.1910205889,-0.188968029\C,-1.5
 314150974,0.1140553797,-0.0737652713\O,-2.6262818395,0.6473177628,-0.0
 026922286\O,-0.3977304059,0.7865291378,-0.0464453142\H,3.9267774857,0.
 703608474,0.6285746084\H,3.2218951411,0.5608635994,-1.0853443433\H,1.7
 276013766,0.1273807898,1.5824505219\H,0.3170753342,-2.2497313958,-0.78
 99225491\H,0.2377468256,-1.8293461625,0.957106589\Li,-4.4061510452,0.2
 097162106,-0.0008983525\\Version=EM64L-G09RevD.01\State=1-A\HF=-427.10
 84565\RMSD=3.199e-09\RMSF=2.467e-05\ZeroPoint=0.1113559\Thermal=0.1198
 893\Dipole=-4.2677653,-0.8948937,-0.1591805\DipoleDeriv=-0.0639577,0.0
 670305,-0.0014596,0.098186,-0.3129457,-0.0107824,-0.0117868,-0.0180612
 ,0.0675272,-0.0932536,0.0904591,0.0434955,0.0209244,-0.3298947,-0.0126
 284,-0.0521246,-0.0161024,0.0785285,1.2347239,-0.0228446,-0.0861864,-0
 .5379826,0.4748837,0.048214,0.0727263,0.1033092,0.3624433,-0.0034283,-
 0.0006232,0.0016413,0.0326787,0.0505912,0.0538327,0.0200456,0.0078682,
 -0.0475493,0.7713483,-0.3557261,0.0616912,0.0216185,0.3764989,-0.05665
 03,0.0130529,-0.0171705,0.3791521,-1.2530093,0.3006044,-0.0296222,0.46
 68901,-1.4758495,-0.0147277,0.0227534,-0.0777549,-0.3735914,3.3869212,
 -0.3740858,-0.1557997,-0.374218,2.3171997,0.0382545,-0.132181,0.129098
 2,0.6058598,-2.3731598,0.5482738,0.0973307,0.4933585,-0.9495322,-0.024
 6132,0.0998085,-0.0342007,-0.5715299,-2.1452677,-0.1159865,0.124257,-0
 .1745,-0.7791505,-0.0171017,0.0263391,-0.0711254,-0.3844633,0.0143021,
 -0.0482457,-0.0463063,-0.0394828,0.1881777,-0.006282,-0.0724526,-0.013
 7272,0.0349048,0.0951101,-0.0284345,-0.0252442,-0.0363088,0.1999896,-0
 .0003279,0.0190261,0.0111038,-0.0495408,0.0505461,-0.0475314,0.0268111
 ,-0.0866457,0.1905702,0.0138069,0.0008997,0.004842,-0.0424665,0.074914
 5,0.0112295,-0.0236631,0.0304079,0.0594339,-0.022206,0.0153739,-0.0762
 236,0.0584993,0.0203537,0.0360587,0.0257182,0.0127627,0.0809069,0.0137
 69,-0.0193631,0.0674085,-0.0410312,1.2838565,-0.0601781,-0.0126636,0.0
 723112,0.9091206,-0.0025574,-0.0021174,0.0007361,0.9232574\Polar=111.6
 648784,2.0314041,72.1778356,-6.5016942,-1.4421011,69.2411059\PG=C01 [X
 (C5H6Li1O3)]\NImag=0\\0.81749167,0.17588095,0.16486608,-0.07140832,-0.
 02909720,0.69074645,-0.48926958,-0.11140660,0.16915742,0.77966857,-0.1
 1255513,-0.07935436,0.04516473,0.16484193,0.19473004,0.16740823,0.0443
 3142,-0.19015273,-0.13075352,-0.03998569,0.68538235,-0.02867842,-0.009
 81787,-0.01270194,-0.16296753,-0.03884701,-0.08021694,0.52081741,-0.00
 993866,0.00291185,-0.00663828,-0.03017757,-0.08410209,-0.02162873,0.08
 181796,0.41932044,0.00912064,0.00187801,0.01080005,-0.07247059,-0.0227
 0635,-0.16247935,-0.00298173,-0.02647651,0.64805192,0.00061761,0.00021
 140,-0.00155263,0.00625935,0.00216455,-0.02621243,-0.06135643,-0.01054
 212,0.04735740,0.07518605,0.00043318,-0.00080794,-0.00040721,-0.000647
 14,0.00282627,-0.00785366,-0.01299688,-0.05424240,0.03843558,0.0050215
 2,0.06196841,0.00138420,0.00014643,0.00131581,0.00258533,0.00286453,-0
 .01772911,0.05167680,0.03382442,-0.31539394,-0.05816535,-0.03388928,0.
 33247507,-0.00042888,-0.00050789,-0.00205478,-0.01458136,-0.02134712,0
 .00336646,-0.07496832,-0.06498003,0.01438312,0.00011553,-0.00276015,-0
 .00061135,0.42063160,0.00194085,0.00011269,0.00109691,-0.01088754,-0.0
 0130588,-0.00151149,-0.03162162,-0.16110709,0.02896588,-0.00254186,-0.
 00539197,0.00114535,-0.05817392,0.60457085,-0.00195811,0.00003944,-0.0
 0162222,-0.00468059,-0.01612597,0.00559204,0.01016051,0.03020521,-0.09
 825419,0.01233237,0.02912923,-0.00165635,-0.01042249,0.03357519,0.6572
 7048,-0.00115344,-0.00047921,-0.00208281,-0.00067759,-0.00725781,0.004
 97919,-0.04485822,-0.00928032,-0.00787083,0.00057647,-0.00154685,0.000
 78306,-0.18354449,-0.00579966,-0.01782338,0.41551242,-0.00060022,0.000
 01667,-0.00110139,-0.00235148,-0.00116107,0.00181885,-0.00512565,-0.01
 591424,-0.00646887,-0.00111694,0.00211910,0.00038414,0.02189259,-0.085
 34418,0.00484437,-0.05046176,0.54321255,0.00016122,-0.00002769,0.00008
 113,-0.00080730,0.00033120,0.00005180,0.00676905,-0.00572097,0.0027320
 2,-0.00126754,0.00011632,-0.00067718,-0.01224879,0.00278310,-0.0694461
 6,0.02220236,0.02971406,0.07799574,0.00175160,0.00022076,0.00200705,-0
 .00200126,-0.00136616,-0.00095318,-0.08059138,0.02581315,0.00635901,0.
 00441798,-0.00506369,-0.00121022,-0.02162880,0.04143951,0.00134752,-0.
 11332533,-0.01743900,-0.00239836,1.02867885,0.00067669,0.00010107,0.00
 121528,0.00547167,-0.00966743,-0.00133088,-0.00990821,0.03269643,0.001
 44120,0.00487568,-0.00570377,-0.00137644,0.06980653,-0.02576926,-0.003
 11949,0.02236500,-0.31029654,-0.01777910,-0.18342674,0.71506561,-0.000
 21050,-0.00004041,-0.00031864,-0.00167113,0.00096973,0.00114222,0.0068
 2322,0.00464877,-0.00593315,0.00349770,-0.00317731,-0.00012781,0.00483
 850,0.00231382,-0.00497114,-0.00159551,-0.01999778,-0.06852595,-0.0325
 6806,0.04250466,0.23689110,-0.00144823,-0.00004745,-0.00216643,-0.0021
 9379,0.00282734,0.00335049,0.01441689,-0.01949997,-0.00413297,-0.00294
 081,0.00279241,0.00039610,0.01243337,0.00101123,0.00109367,-0.02826084
 ,0.06193863,0.00660831,-0.54842878,0.21793536,0.02765106,0.72173664,0.
 00014889,0.00002828,0.00011417,-0.00098530,0.00136478,-0.00024322,-0.0
 0080927,-0.00231090,-0.00106941,0.00004615,0.00019840,0.00017693,-0.01
 438791,-0.00436530,-0.00265182,0.07380644,-0.05336911,-0.00562924,0.22
 486774,-0.20560049,-0.01707801,-0.26809969,0.23958233,0.00008370,-0.00
 001576,0.00022735,0.00075164,-0.00060949,-0.00079625,-0.00044204,-0.00
 045453,0.00621194,-0.00099974,0.00085854,-0.00020707,-0.00188118,-0.00
 129317,0.00639954,0.00802798,-0.00646985,0.01742030,0.02820598,-0.0168
 9454,-0.08571376,-0.03766493,0.02326780,0.04268866,-0.00178007,0.00087
 315,-0.00690306,-0.03930085,0.02545733,0.00969510,-0.08996403,0.047589
 63,0.02741208,-0.01947372,0.01920511,0.00605669,-0.02100223,0.01704624
 ,0.00398654,-0.00827022,-0.05697265,-0.00534456,-0.23518216,-0.1164324
 7,-0.00483734,-0.12181253,-0.01093128,0.00323223,0.52011239,-0.0022625
 3,-0.00104709,-0.00026932,0.00141146,0.00880824,0.00455377,0.01893567,
 -0.12389888,-0.01941348,0.00441164,0.00061776,-0.00262820,0.00935648,-
 0.04678231,-0.01485101,-0.03157804,-0.07525386,-0.00810382,-0.08387209
 ,-0.19282990,-0.01122998,0.01099854,0.02830814,0.00165732,0.07463727,0
 .40694039,-0.00109086,-0.00027698,-0.00091523,-0.01236755,0.01087874,0
 .00904246,0.01577920,-0.01654878,-0.07363714,0.02714211,-0.02343720,-0
 .00022630,-0.00394247,-0.00304359,0.00286468,-0.00110219,-0.00841566,0
 .02756274,-0.00039464,-0.00633838,-0.07271431,0.00589224,0.00257340,0.
 01720691,-0.03119931,0.04573296,0.08895103,-0.23582064,-0.04657662,-0.
 13503740,-0.01574594,-0.00485893,-0.01856505,-0.00150874,-0.00419122,0
 .00285275,0.00007430,0.00011419,0.00009401,-0.00047956,0.00059792,-0.0
 0079594,-0.00074717,-0.00019829,0.00006597,0.00066545,-0.00020449,-0.0
 0007992,-0.00045919,0.00015211,0.00003641,-0.00020774,-0.00018139,-0.0
 0001389,0.24689884,-0.04570530,-0.05140179,-0.03187621,-0.00739715,0.0
 0360969,-0.00422903,-0.00069828,0.01297136,0.00144122,0.00000483,0.000
 06051,-0.00023408,0.00116772,-0.00072385,0.00086518,0.00105267,-0.0001
 2572,-0.00015340,0.00043512,0.00185090,-0.00004469,-0.00068265,-0.0002
 6043,0.00009437,-0.00426279,-0.00109343,-0.00086477,0.05262012,0.03831
 861,-0.14131841,-0.03291716,-0.16424226,0.01306470,0.00324253,0.010969
 79,0.00170792,0.00092987,-0.00064651,0.00015685,0.00002889,0.00029877,
 0.00004741,-0.00014101,0.00035361,0.00023273,0.00009658,-0.00001512,-0
 .00031853,-0.00007310,0.00007601,0.00026081,-0.00004069,-0.00004151,0.
 00048556,0.00001233,0.00018078,0.14695796,0.03394741,0.16202518,-0.060
 74470,-0.00585370,0.03298322,-0.00000200,-0.00245459,0.02870166,0.0009
 7632,0.00251415,0.00181065,-0.00026248,-0.00014842,-0.00073720,0.00017
 943,-0.00012193,0.00002741,0.00012948,0.00002282,-0.00002422,0.0000210
 5,0.00015502,0.00004967,-0.00003877,-0.00002035,-0.00000033,-0.0003166
 0,-0.00018555,-0.00021437,0.00669196,0.00109237,-0.02100086,0.05664737
 ,-0.00538174,-0.04141278,0.01448896,-0.00199140,0.00689784,0.00673940,
 0.00118788,-0.00824445,0.00054050,-0.00026730,-0.00005586,0.00003825,-
 0.00050752,0.00058885,-0.00029503,-0.00059052,-0.00007132,0.00017969,0
 .00010309,-0.00075192,-0.00004743,0.00018043,0.00012895,-0.00002630,0.
 00176057,0.00057570,-0.00003857,0.00070368,0.00391462,-0.00487911,0.00
 861705,0.02822322,0.03821783,0.01578742,-0.33998083,-0.00068710,0.0000
 9923,-0.00891417,-0.00133992,-0.00049297,0.00128762,0.00070705,0.00017
 675,0.00045179,-0.00017634,-0.00010369,0.00021346,-0.00003907,-0.00001
 872,0.00000280,-0.00009369,0.00002050,0.00004308,0.00003629,-0.0000163
 0,-0.00001331,-0.00008602,-0.00004425,-0.00003531,0.00444549,0.0012180
 9,-0.00978359,-0.04255497,-0.01715622,0.35588857,-0.00030731,-0.002710
 22,0.02948028,-0.06018694,-0.00635875,0.03771156,0.00284200,-0.0001437
 6,-0.02621670,-0.00363658,-0.00121839,-0.00228865,0.00097556,0.0014663
 2,-0.00069604,-0.00017075,0.00013394,0.00024417,0.00016676,-0.00039097
 ,0.00012044,-0.00005572,0.00005641,-0.00006429,0.00223434,-0.00012347,
 0.00094049,0.00066793,0.00230631,-0.00026803,-0.00327724,-0.00379485,0
 .00158127,0.06051645,-0.00211571,0.00597485,0.00770948,-0.00707157,-0.
 04268447,0.01715984,0.00139594,0.00175793,-0.00680404,-0.00140164,0.00
 088867,-0.00053963,0.00087128,0.00096698,-0.00085475,0.00005552,-0.000
 18533,0.00019221,0.00083705,0.00052260,0.00002611,-0.00051931,0.000010
 81,-0.00000283,-0.00152337,0.00006206,0.00042765,0.00214754,-0.0071100
 2,-0.00023940,-0.00365695,0.01024720,0.00056302,0.01091439,0.02968143,
 -0.00057237,0.00032624,-0.00631951,0.03898077,0.01634241,-0.33298748,0
 .00462452,0.00076865,-0.01522426,-0.00254913,-0.00073936,-0.00049553,0
 .00049177,0.00087900,0.00052422,-0.00012390,-0.00009667,0.00006795,0.0
 0037230,0.00020877,-0.00006724,-0.00032443,0.00002517,-0.00000373,-0.0
 0054238,0.00041416,0.00092368,-0.00004180,-0.00018945,0.00087726,0.001
 09560,0.00039837,0.00092370,-0.04120178,-0.01778813,0.35148755,-0.0003
 6985,0.00017526,0.00000048,0.00001424,0.00005462,0.00044317,0.00649238
 ,-0.00671908,-0.01128156,0.00083792,0.00037966,0.00000431,-0.06282426,
 0.03569570,0.03823438,-0.01726746,0.03325939,0.02075736,-0.00715195,-0
 .00690836,0.00240712,-0.00148231,0.00339671,-0.00080078,0.00283266,-0.
 00313306,0.00002624,-0.00006899,-0.00002739,0.00002972,-0.00001414,-0.
 00000073,0.00002734,0.00006761,-0.00010144,0.00009940,0.07423651,-0.00
 044341,-0.00001040,-0.00031395,0.00006993,-0.00122967,0.00115017,0.005
 86721,-0.01410625,-0.01685102,0.00053224,0.00158921,-0.00008675,0.0468
 6940,-0.19301332,-0.13656814,0.00191194,-0.00065049,-0.00102020,-0.001
 59905,-0.00162205,-0.00021691,0.00091807,-0.00005400,-0.00004412,0.001
 33834,-0.00441618,-0.00001498,-0.00013505,0.00004379,0.00006312,-0.000
 00544,0.00000480,0.00002535,0.00001580,0.00003331,-0.00001300,-0.05202
 615,0.20366022,0.00015599,-0.00009980,0.00011218,-0.00029458,0.0000648
 1,-0.00022439,-0.00153722,0.00715160,0.00573351,-0.00043482,0.00000766
 ,0.00091122,0.04752156,-0.14428726,-0.19184770,-0.00180489,0.00531672,
 0.00712937,-0.00074840,0.00225342,0.00044662,-0.00047414,0.00040522,-0
 .00024319,-0.00137920,0.00320964,0.00049008,0.00003925,0.00002316,-0.0
 0002023,-0.00004668,0.00000209,-0.00001581,0.00007374,-0.00001602,0.00
 016802,-0.04737102,0.14626821,0.19255251,-0.00009096,-0.00000009,-0.00
 001979,0.00087006,-0.00014571,0.00152046,0.00124975,-0.00376054,0.0152
 1329,-0.00075703,-0.00327831,0.00011166,-0.05235628,0.00954160,-0.0305
 2634,-0.02246227,0.02291061,-0.03386769,-0.00231362,-0.00970032,-0.005
 10860,-0.00229734,0.00263457,0.00173537,0.00287636,0.00040948,0.000553
 63,-0.00004292,0.00004231,-0.00000048,0.00001020,-0.00001877,-0.000031
 28,0.00014665,0.00009990,-0.00034857,0.00435664,-0.00314812,0.00622643
 ,0.07030476,-0.00011062,0.00002115,-0.00012535,0.00110798,0.00136046,0
 .00108567,0.00109806,-0.00610495,0.02708295,-0.00146971,-0.00398041,0.
 00018710,0.01278282,-0.08208756,0.07577006,0.00558718,0.00029420,0.005
 60598,0.00009692,-0.00046628,0.00078440,0.00020627,-0.00007073,-0.0002
 8649,0.00061288,0.00002689,-0.00058640,0.00000188,-0.00007409,-0.00002
 476,0.00004546,-0.00004197,-0.00005762,-0.00015912,-0.00018355,-0.0005
 4254,-0.00409380,0.00979785,-0.02031385,-0.01565164,0.08150466,0.00003
 150,-0.00004046,0.00026545,-0.00084040,-0.00049973,0.00110808,0.001658
 02,0.00047728,-0.00347685,0.00001410,0.00072680,0.00106413,-0.03938862
 ,0.07966633,-0.30538837,-0.00367779,0.00042916,0.00574651,0.00015960,-
 0.00116671,0.00042522,-0.00000963,0.00013137,-0.00040942,-0.00053715,0
 .00101120,-0.00036445,0.00004359,-0.00000064,-0.00003118,-0.00009223,0
 .00005701,-0.00006648,0.00059241,0.00016519,0.00012993,-0.00258278,0.0
 0762234,-0.01519487,0.04456341,-0.08857833,0.31619677,0.00023119,0.000
 03815,0.00029871,0.00011461,-0.00015455,-0.00047520,-0.00190172,0.0014
 9839,0.00044545,0.00034183,-0.00028625,-0.00007938,-0.00252131,0.00040
 716,-0.00027952,0.00451940,-0.00589200,-0.00084999,-0.02507843,0.00568
 561,0.00068335,-0.03916860,-0.00987521,-0.00021999,0.00925441,0.001175
 60,-0.00000861,0.00008240,0.00005210,-0.00003737,0.00000010,0.00000013
 ,-0.00000687,0.00001724,0.00006836,0.00004000,0.00034099,-0.00016571,0
 .00007397,0.00050600,-0.00005456,0.00006599,0.05326187,0.00003276,0.00
 000173,0.00003938,0.00001278,-0.00009235,-0.00005640,-0.00047794,0.000
 37325,0.00000435,0.00007155,-0.00008597,-0.00001278,-0.00008227,-0.000
 34863,0.00003754,0.00221543,-0.00327065,-0.00048815,-0.00104662,0.0024
 7103,0.00058503,-0.00995922,-0.00359071,0.00021905,0.00160205,-0.00001
 753,-0.00004746,0.00000854,0.00001983,-0.00000551,0.00000009,-0.000002
 90,-0.00000061,0.00000637,0.00001754,0.00000637,0.00004866,-0.00002684
 ,0.00001439,0.00006503,0.00000433,-0.00000082,0.00750278,0.00454788,-0
 .00000472,0.00000649,0.00000300,0.00003290,-0.00003068,-0.00000527,0.0
 0002056,-0.00004503,0.00022834,-0.00002593,0.00002425,-0.00000350,0.00
 007723,-0.00004539,-0.00003190,-0.00010495,-0.00003495,-0.00012595,0.0
 0023362,0.00043481,-0.00065225,-0.00051644,0.00003462,-0.00272646,-0.0
 0003917,-0.00005133,0.00067039,-0.00000143,0.00000283,-0.00000099,0.00
 000264,-0.00000161,-0.00000152,-0.00000886,0.00000131,-0.00000456,0.00
 000661,-0.00000011,0.00000268,-0.00002151,-0.00000083,-0.00000449,0.00
 034945,-0.00029438,0.00265247\\-0.00000419,0.00000174,-0.00001176,0.00
 000037,0.00000018,-0.00001573,0.00003058,-0.00004912,0.00000877,-0.000
 02314,0.00001399,-0.00000240,0.00004578,0.00001721,-0.00002274,-0.0000
 4069,0.00000697,0.00000527,-0.00002162,0.00002009,0.00003474,0.0000133
 6,-0.00005380,0.00003557,-0.00001357,0.00005375,0.00002288,0.00000898,
 -0.00000833,-0.00003290,-0.00001033,0.00001469,-0.00002468,0.00001634,
 -0.00001776,-0.00000912,-0.00001272,0.00000410,-0.00002934,0.00000949,
 -0.00001123,-0.00001900,0.00000137,0.00000753,0.00006045\\\@


 I WISH TO HAVE NO CONNECTION WITH ANY SHIP THAT DOES NOT SAIL FAST,
 FOR I INTEND TO GO IN HARM'S WAY.
     -- JOHN PAUL JONES, USN 1747-1792
 Job cpu time:       0 days  0 hours 13 minutes 27.9 seconds.
 File lengths (MBytes):  RWF=    584 Int=      0 D2E=      0 Chk=     12 Scr=      8
 Normal termination of Gaussian 09 at Mon May 16 17:41:46 2022.
