 Entering Gaussian System, Link 0=g09
 Initial command:
 /gpfs/runtime/opt/gaussian/g09-D01/g09/l1.exe "/gpfs/data/yqi27/cgu13/CHEM1560Q/Gaussian/4427-96-7/inp6/Gau-130107.inp" -scrdir="/gpfs/data/yqi27/cgu13/CHEM1560Q/Gaussian/4427-96-7/inp6/"
 Entering Link 1 = /gpfs/runtime/opt/gaussian/g09-D01/g09/l1.exe PID=    130108.
  
 Copyright (c) 1988,1990,1992,1993,1995,1998,2003,2009,2013,
            Gaussian, Inc.  All Rights Reserved.
  
 This is part of the Gaussian(R) 09 program.  It is based on
 the Gaussian(R) 03 system (copyright 2003, Gaussian, Inc.),
 the Gaussian(R) 98 system (copyright 1998, Gaussian, Inc.),
 the Gaussian(R) 94 system (copyright 1995, Gaussian, Inc.),
 the Gaussian 92(TM) system (copyright 1992, Gaussian, Inc.),
 the Gaussian 90(TM) system (copyright 1990, Gaussian, Inc.),
 the Gaussian 88(TM) system (copyright 1988, Gaussian, Inc.),
 the Gaussian 86(TM) system (copyright 1986, Carnegie Mellon
 University), and the Gaussian 82(TM) system (copyright 1983,
 Carnegie Mellon University). Gaussian is a federally registered
 trademark of Gaussian, Inc.
  
 This software contains proprietary and confidential information,
 including trade secrets, belonging to Gaussian, Inc.
  
 This software is provided under written license and may be
 used, copied, transmitted, or stored only in accord with that
 written license.
  
 The following legend is applicable only to US Government
 contracts under FAR:
  
                    RESTRICTED RIGHTS LEGEND
  
 Use, reproduction and disclosure by the US Government is
 subject to restrictions as set forth in subparagraphs (a)
 and (c) of the Commercial Computer Software - Restricted
 Rights clause in FAR 52.227-19.
  
 Gaussian, Inc.
 340 Quinnipiac St., Bldg. 40, Wallingford CT 06492
  
  
 ---------------------------------------------------------------
 Warning -- This program may not be used in any manner that
 competes with the business of Gaussian, Inc. or will provide
 assistance to any competitor of Gaussian, Inc.  The licensee
 of this program is prohibited from giving any competitor of
 Gaussian, Inc. access to this program.  By using this program,
 the user acknowledges that Gaussian, Inc. is engaged in the
 business of creating and licensing software in the field of
 computational chemistry and represents and warrants to the
 licensee that it is not a competitor of Gaussian, Inc. and that
 it will not use this program in any manner prohibited above.
 ---------------------------------------------------------------
  

 Cite this work as:
 Gaussian 09, Revision D.01,
 M. J. Frisch, G. W. Trucks, H. B. Schlegel, G. E. Scuseria, 
 M. A. Robb, J. R. Cheeseman, G. Scalmani, V. Barone, B. Mennucci, 
 G. A. Petersson, H. Nakatsuji, M. Caricato, X. Li, H. P. Hratchian, 
 A. F. Izmaylov, J. Bloino, G. Zheng, J. L. Sonnenberg, M. Hada, 
 M. Ehara, K. Toyota, R. Fukuda, J. Hasegawa, M. Ishida, T. Nakajima, 
 Y. Honda, O. Kitao, H. Nakai, T. Vreven, J. A. Montgomery, Jr., 
 J. E. Peralta, F. Ogliaro, M. Bearpark, J. J. Heyd, E. Brothers, 
 K. N. Kudin, V. N. Staroverov, T. Keith, R. Kobayashi, J. Normand, 
 K. Raghavachari, A. Rendell, J. C. Burant, S. S. Iyengar, J. Tomasi, 
 M. Cossi, N. Rega, J. M. Millam, M. Klene, J. E. Knox, J. B. Cross, 
 V. Bakken, C. Adamo, J. Jaramillo, R. Gomperts, R. E. Stratmann, 
 O. Yazyev, A. J. Austin, R. Cammi, C. Pomelli, J. W. Ochterski, 
 R. L. Martin, K. Morokuma, V. G. Zakrzewski, G. A. Voth, 
 P. Salvador, J. J. Dannenberg, S. Dapprich, A. D. Daniels, 
 O. Farkas, J. B. Foresman, J. V. Ortiz, J. Cioslowski, 
 and D. J. Fox, Gaussian, Inc., Wallingford CT, 2013.
 
 ******************************************
 Gaussian 09:  EM64L-G09RevD.01 24-Apr-2013
                16-May-2022 
 ******************************************
 %Mem=16GB
 %NProcShared=8
 Will use up to    8 processors via shared memory.
 ----------------------------------------------------------------------
 #P M062X/6-31+G** EmpiricalDispersion=GD3 SCRF(SMD,solvent=DiMethylSul
 foxide) Opt Freq
 ----------------------------------------------------------------------
 1/14=-1,18=20,19=15,26=3,38=1/1,3;
 2/9=110,12=2,17=6,18=5,40=1/2;
 3/5=1,6=6,7=111,11=2,16=1,25=1,30=1,70=32201,71=1,72=21,74=-55,124=31/1,2,3;
 4//1;
 5/5=2,38=5,53=21/2;
 6/7=2,8=2,9=2,10=2,28=1/1;
 7//1,2,3,16;
 1/14=-1,18=20,19=15,26=3/3(2);
 2/9=110/2;
 99//99;
 2/9=110/2;
 3/5=1,6=6,7=111,11=2,16=1,25=1,30=1,70=32205,71=1,72=21,74=-55,124=31/1,2,3;
 4/5=5,16=3,69=1/1;
 5/5=2,38=5,53=21/2;
 7//1,2,3,16;
 1/14=-1,18=20,19=15,26=3/3(-5);
 2/9=110/2;
 6/7=2,8=2,9=2,10=2,19=2,28=1/1;
 99/9=1/99;
 Leave Link    1 at Mon May 16 17:53:24 2022, MaxMem=  2147483648 cpu:         1.0
 (Enter /gpfs/runtime/opt/gaussian/g09-D01/g09/l101.exe)
 ---------
 4427-96-7
 ---------
 Symbolic Z-matrix:
 Charge =  1 Multiplicity = 1
 C                     3.1116    0.4034    0.0615 
 C                     1.8904    0.2228    0.4999 
 C                     0.7805   -0.0914   -0.4698 
 H                     1.1621   -0.1191   -1.4905 
 C                     0.1086   -1.4298   -0.1073 
 O                    -1.2726   -1.0622    0.1778 
 C                    -1.4177    0.2576    0.0189 
 O                    -2.472     0.8342    0.1936 
 O                    -0.2938    0.8864   -0.3519 
 H                     3.907     0.6286    0.7565 
 H                     3.3238    0.3227   -0.9943 
 H                     1.679     0.2991    1.5563 
 H                     0.1544   -2.1211   -0.9489 
 H                     0.5778   -1.867     0.774 
 Li                    0.8028   -0.2026   -4.4905 
 
 Add virtual bond connecting atoms Li15       and H4         Dist= 5.71D+00.
 NAtoms=     15 NQM=       15 NQMF=       0 NMMI=      0 NMMIF=      0
                NMic=       0 NMicF=      0.
                    Isotopes and Nuclear Properties:
 (Nuclear quadrupole moments (NQMom) in fm**2, nuclear magnetic moments (NMagM)
  in nuclear magnetons)

  Atom         1           2           3           4           5           6           7           8           9          10
 IAtWgt=          12          12          12           1          12          16          12          16          16           1
 AtmWgt=  12.0000000  12.0000000  12.0000000   1.0078250  12.0000000  15.9949146  12.0000000  15.9949146  15.9949146   1.0078250
 NucSpn=           0           0           0           1           0           0           0           0           0           1
 AtZEff=   0.0000000   0.0000000   0.0000000   0.0000000   0.0000000   0.0000000   0.0000000   0.0000000   0.0000000   0.0000000
 NQMom=    0.0000000   0.0000000   0.0000000   0.0000000   0.0000000   0.0000000   0.0000000   0.0000000   0.0000000   0.0000000
 NMagM=    0.0000000   0.0000000   0.0000000   2.7928460   0.0000000   0.0000000   0.0000000   0.0000000   0.0000000   2.7928460
 AtZNuc=   6.0000000   6.0000000   6.0000000   1.0000000   6.0000000   8.0000000   6.0000000   8.0000000   8.0000000   1.0000000

  Atom        11          12          13          14          15
 IAtWgt=           1           1           1           1           7
 AtmWgt=   1.0078250   1.0078250   1.0078250   1.0078250   7.0160045
 NucSpn=           1           1           1           1           3
 AtZEff=   0.0000000   0.0000000   0.0000000   0.0000000   0.0000000
 NQMom=    0.0000000   0.0000000   0.0000000   0.0000000  -4.0100000
 NMagM=    2.7928460   2.7928460   2.7928460   2.7928460   3.2564240
 AtZNuc=   1.0000000   1.0000000   1.0000000   1.0000000   3.0000000
 Leave Link  101 at Mon May 16 17:53:24 2022, MaxMem=  2147483648 cpu:         2.3
 (Enter /gpfs/runtime/opt/gaussian/g09-D01/g09/l103.exe)

 GradGradGradGradGradGradGradGradGradGradGradGradGradGradGradGradGradGrad
 Berny optimization.
 Initialization pass.
                           ----------------------------
                           !    Initial Parameters    !
                           ! (Angstroms and Degrees)  !
 --------------------------                            --------------------------
 ! Name  Definition              Value          Derivative Info.                !
 --------------------------------------------------------------------------------
 ! R1    R(1,2)                  1.31           estimate D2E/DX2                !
 ! R2    R(1,10)                 1.08           estimate D2E/DX2                !
 ! R3    R(1,11)                 1.0799         estimate D2E/DX2                !
 ! R4    R(2,3)                  1.507          estimate D2E/DX2                !
 ! R5    R(2,12)                 1.08           estimate D2E/DX2                !
 ! R6    R(3,4)                  1.0901         estimate D2E/DX2                !
 ! R7    R(3,5)                  1.5408         estimate D2E/DX2                !
 ! R8    R(3,9)                  1.4574         estimate D2E/DX2                !
 ! R9    R(4,15)                 3.0226         estimate D2E/DX2                !
 ! R10   R(5,6)                  1.4574         estimate D2E/DX2                !
 ! R11   R(5,13)                 1.0901         estimate D2E/DX2                !
 ! R12   R(5,14)                 1.0899         estimate D2E/DX2                !
 ! R13   R(6,7)                  1.3372         estimate D2E/DX2                !
 ! R14   R(7,8)                  1.2143         estimate D2E/DX2                !
 ! R15   R(7,9)                  1.3402         estimate D2E/DX2                !
 ! A1    A(2,1,10)             119.9961         estimate D2E/DX2                !
 ! A2    A(2,1,11)             120.0029         estimate D2E/DX2                !
 ! A3    A(10,1,11)            120.0004         estimate D2E/DX2                !
 ! A4    A(1,2,3)              119.999          estimate D2E/DX2                !
 ! A5    A(1,2,12)             120.0033         estimate D2E/DX2                !
 ! A6    A(3,2,12)             119.9977         estimate D2E/DX2                !
 ! A7    A(2,3,4)              110.4876         estimate D2E/DX2                !
 ! A8    A(2,3,5)              110.5416         estimate D2E/DX2                !
 ! A9    A(2,3,9)              110.5461         estimate D2E/DX2                !
 ! A10   A(4,3,5)              110.5409         estimate D2E/DX2                !
 ! A11   A(4,3,9)              110.5389         estimate D2E/DX2                !
 ! A12   A(5,3,9)              104.0224         estimate D2E/DX2                !
 ! A13   A(3,4,15)             152.6811         estimate D2E/DX2                !
 ! A14   A(3,5,6)              103.8976         estimate D2E/DX2                !
 ! A15   A(3,5,13)             110.5423         estimate D2E/DX2                !
 ! A16   A(3,5,14)             110.5443         estimate D2E/DX2                !
 ! A17   A(6,5,13)             110.536          estimate D2E/DX2                !
 ! A18   A(6,5,14)             110.5462         estimate D2E/DX2                !
 ! A19   A(13,5,14)            110.597          estimate D2E/DX2                !
 ! A20   A(5,6,7)              109.1792         estimate D2E/DX2                !
 ! A21   A(6,7,8)              123.077          estimate D2E/DX2                !
 ! A22   A(6,7,9)              113.8887         estimate D2E/DX2                !
 ! A23   A(8,7,9)              123.0342         estimate D2E/DX2                !
 ! A24   A(3,9,7)              109.0119         estimate D2E/DX2                !
 ! D1    D(10,1,2,3)           179.9986         estimate D2E/DX2                !
 ! D2    D(10,1,2,12)           -0.0002         estimate D2E/DX2                !
 ! D3    D(11,1,2,3)            -0.2775         estimate D2E/DX2                !
 ! D4    D(11,1,2,12)          179.7237         estimate D2E/DX2                !
 ! D5    D(1,2,3,4)             -0.7015         estimate D2E/DX2                !
 ! D6    D(1,2,3,5)            121.9826         estimate D2E/DX2                !
 ! D7    D(1,2,3,9)           -123.3863         estimate D2E/DX2                !
 ! D8    D(12,2,3,4)           179.2973         estimate D2E/DX2                !
 ! D9    D(12,2,3,5)           -58.0185         estimate D2E/DX2                !
 ! D10   D(12,2,3,9)            56.6125         estimate D2E/DX2                !
 ! D11   D(2,3,4,15)          -168.3233         estimate D2E/DX2                !
 ! D12   D(5,3,4,15)            68.9922         estimate D2E/DX2                !
 ! D13   D(9,3,4,15)           -45.6343         estimate D2E/DX2                !
 ! D14   D(2,3,5,6)            118.6082         estimate D2E/DX2                !
 ! D15   D(2,3,5,13)          -122.7957         estimate D2E/DX2                !
 ! D16   D(2,3,5,14)            -0.0009         estimate D2E/DX2                !
 ! D17   D(4,3,5,6)           -118.7388         estimate D2E/DX2                !
 ! D18   D(4,3,5,13)            -0.1427         estimate D2E/DX2                !
 ! D19   D(4,3,5,14)           122.6521         estimate D2E/DX2                !
 ! D20   D(9,3,5,6)             -0.0697         estimate D2E/DX2                !
 ! D21   D(9,3,5,13)           118.5264         estimate D2E/DX2                !
 ! D22   D(9,3,5,14)          -118.6788         estimate D2E/DX2                !
 ! D23   D(2,3,9,7)           -118.5507         estimate D2E/DX2                !
 ! D24   D(4,3,9,7)            118.7945         estimate D2E/DX2                !
 ! D25   D(5,3,9,7)              0.1241         estimate D2E/DX2                !
 ! D26   D(3,5,6,7)             -0.0061         estimate D2E/DX2                !
 ! D27   D(13,5,6,7)          -118.6065         estimate D2E/DX2                !
 ! D28   D(14,5,6,7)           118.6017         estimate D2E/DX2                !
 ! D29   D(5,6,7,8)           -179.9616         estimate D2E/DX2                !
 ! D30   D(5,6,7,9)              0.0913         estimate D2E/DX2                !
 ! D31   D(6,7,9,3)             -0.1403         estimate D2E/DX2                !
 ! D32   D(8,7,9,3)            179.9126         estimate D2E/DX2                !
 --------------------------------------------------------------------------------
 Trust Radius=3.00D-01 FncErr=1.00D-07 GrdErr=1.00D-06
 Number of steps in this run=     81 maximum allowed number of steps=    100.
 GradGradGradGradGradGradGradGradGradGradGradGradGradGradGradGradGradGrad

 Leave Link  103 at Mon May 16 17:53:24 2022, MaxMem=  2147483648 cpu:         0.2
 (Enter /gpfs/runtime/opt/gaussian/g09-D01/g09/l202.exe)
                          Input orientation:                          
 ---------------------------------------------------------------------
 Center     Atomic      Atomic             Coordinates (Angstroms)
 Number     Number       Type             X           Y           Z
 ---------------------------------------------------------------------
      1          6           0        3.111600    0.403400    0.061500
      2          6           0        1.890400    0.222800    0.499900
      3          6           0        0.780500   -0.091400   -0.469800
      4          1           0        1.162100   -0.119100   -1.490500
      5          6           0        0.108600   -1.429800   -0.107300
      6          8           0       -1.272600   -1.062200    0.177800
      7          6           0       -1.417700    0.257600    0.018900
      8          8           0       -2.472000    0.834200    0.193600
      9          8           0       -0.293800    0.886400   -0.351900
     10          1           0        3.907000    0.628600    0.756500
     11          1           0        3.323800    0.322700   -0.994300
     12          1           0        1.679000    0.299100    1.556300
     13          1           0        0.154400   -2.121100   -0.948900
     14          1           0        0.577800   -1.867000    0.774000
     15          3           0        0.802800   -0.202600   -4.490500
 ---------------------------------------------------------------------
                    Distance matrix (angstroms):
                    1          2          3          4          5
     1  C    0.000000
     2  C    1.310015   0.000000
     3  C    2.441543   1.506956   0.000000
     4  H    2.546028   2.146860   1.090052   0.000000
     5  C    3.522375   2.504913   1.540834   2.177393   0.000000
     6  O    4.624145   3.429219   2.361580   3.098456   1.457438
     7  C    4.531846   3.343067   2.278752   3.012567   2.278780
     8  O    5.601752   4.415672   3.446098   4.117239   3.446119
     9  O    3.464237   2.436526   1.457434   2.104064   2.363586
    10  H    1.080001   2.072967   3.434707   3.625264   4.405792
    11  H    1.079933   2.072981   2.629630   2.261493   3.767696
    12  H    2.073077   1.080043   2.250527   3.118504   2.867545
    13  H    4.017342   3.256775   2.177434   2.305817   1.090084
    14  H    3.475991   2.483005   2.177356   2.919678   1.089946
    15  Li   5.139893   5.125225   4.022299   3.022593   4.604387
                    6          7          8          9         10
     6  O    0.000000
     7  C    1.337227   0.000000
     8  O    2.243912   1.214305   0.000000
     9  O    2.244031   1.340162   2.246074   0.000000
    10  H    5.479229   5.388332   6.407087   4.352210   0.000000
    11  H    4.941524   4.848983   5.938353   3.717185   1.870561
    12  H    3.530629   3.457582   4.401600   2.806793   2.390028
    13  H    2.104056   3.011038   4.115469   3.098766   4.954921
    14  H    2.104076   3.011000   4.115170   3.099766   4.160757
    15  Li   5.180658   5.047484   5.808620   4.417744   6.152882
                   11         12         13         14         15
    11  H    0.000000
    12  H    3.035043   0.000000
    13  H    4.002414   3.802341   0.000000
    14  H    3.932199   2.552768   1.792266   0.000000
    15  Li   4.342211   6.130515   4.079705   5.525922   0.000000
 Stoichiometry    C5H6LiO3(1+)
 Framework group  C1[X(C5H6LiO3)]
 Deg. of freedom    39
 Full point group                 C1      NOp   1
 Largest Abelian subgroup         C1      NOp   1
 Largest concise Abelian subgroup C1      NOp   1
                         Standard orientation:                         
 ---------------------------------------------------------------------
 Center     Atomic      Atomic             Coordinates (Angstroms)
 Number     Number       Type             X           Y           Z
 ---------------------------------------------------------------------
      1          6           0       -2.963092   -0.538141   -0.359864
      2          6           0       -1.712543   -0.864823   -0.146448
      3          6           0       -0.673771    0.211109    0.038592
      4          1           0       -1.127781    1.198447   -0.046566
      5          6           0        0.029528    0.055102    1.400651
      6          8           0        1.425731   -0.172019    1.049712
      7          6           0        1.552066   -0.157578   -0.281455
      8          8           0        2.613170   -0.322798   -0.848286
      9          8           0        0.401079    0.056985   -0.933548
     10          1           0       -3.707514   -1.309274   -0.492495
     11          1           0       -3.250396    0.502148   -0.398735
     12          1           0       -1.425971   -1.905252   -0.103127
     13          1           0       -0.073167    0.965907    1.990713
     14          1           0       -0.372641   -0.800519    1.943011
     15          3           0       -0.985165    4.205727   -0.314893
 ---------------------------------------------------------------------
 Rotational constants (GHZ):      2.2380838      1.1700001      1.0077870
 Leave Link  202 at Mon May 16 17:53:24 2022, MaxMem=  2147483648 cpu:         0.6
 (Enter /gpfs/runtime/opt/gaussian/g09-D01/g09/l301.exe)
 Standard basis: 6-31+G(d,p) (6D, 7F)
 Ernie: Thresh=  0.10000D-02 Tol=  0.10000D-05 Strict=F.
 There are   201 symmetry adapted cartesian basis functions of A   symmetry.
 There are   201 symmetry adapted basis functions of A   symmetry.
   201 basis functions,   330 primitive gaussians,   201 cartesian basis functions
    31 alpha electrons       31 beta electrons
       nuclear repulsion energy       392.3266263252 Hartrees.
 IExCor= 4336 DFT=T Ex+Corr=M062X ExCW=0 ScaHFX=  0.540000
 ScaDFX=  1.000000  1.000000  1.000000  1.000000 ScalE2=  1.000000  1.000000
 IRadAn=      0 IRanWt=     -1 IRanGd=            0 ICorTp=0 IEmpDi=131
 NAtoms=   15 NActive=   15 NUniq=   15 SFac= 1.00D+00 NAtFMM=   60 NAOKFM=F Big=F
 Integral buffers will be    131072 words long.
 Raffenetti 2 integral format.
 Two-electron integral symmetry is turned on.
 R6Disp:  Grimme-D3 Dispersion energy=       -0.0005219990 Hartrees.
 Nuclear repulsion after empirical dispersion term =      392.3261043263 Hartrees.
 ------------------------------------------------------------------------------
 Polarizable Continuum Model (PCM)
 =================================
 Model                : PCM (using non-symmetric T matrix).
 Atomic radii         : SMD-Coulomb.
 Polarization charges : Total charges.
 Charge compensation  : None.
 Solution method      : On-the-fly selection.
 Cavity type          : VdW (van der Waals Surface) (Alpha=1.000).
 Cavity algorithm     : GePol (No added spheres)
                        Default sphere list used, NSphG=   15.
                        Lebedev-Laikov grids with approx.  5.0 points / Ang**2.
                        Smoothing algorithm: Karplus/York (Gamma=1.0000).
                        Polarization charges: spherical gaussians, with
                                              point-specific exponents (IZeta= 3).
                        Self-potential: point-specific (ISelfS= 7).
                        Self-field    : sphere-specific E.n sum rule (ISelfD= 2).
 1st derivatives      : Analytical E(r).r(x)/FMM algorithm (CHGder, D1EAlg=3).
                        Cavity 1st derivative terms included.
 Solvent              : DiMethylSulfoxide, Eps=  46.826000 Eps(inf)=   2.007889
 ------------------------------------------------------------------------------
 Spheres list:
 ISph  on   Nord     Re0    Alpha      Xe            Ye            Ze
    1   C      1    1.8500  1.000     -2.963092     -0.538141     -0.359864
    2   C      2    1.8500  1.000     -1.712543     -0.864823     -0.146448
    3   C      3    1.8500  1.000     -0.673771      0.211109      0.038592
    4   H      4    1.2000  1.000     -1.127781      1.198447     -0.046566
    5   C      5    1.8500  1.000      0.029528      0.055102      1.400651
    6   O      6    2.2940  1.000      1.425731     -0.172019      1.049712
    7   C      7    1.8500  1.000      1.552066     -0.157578     -0.281455
    8   O      8    2.2940  1.000      2.613170     -0.322798     -0.848286
    9   O      9    2.2940  1.000      0.401079      0.056985     -0.933548
   10   H     10    1.2000  1.000     -3.707514     -1.309274     -0.492495
   11   H     11    1.2000  1.000     -3.250396      0.502148     -0.398735
   12   H     12    1.2000  1.000     -1.425971     -1.905252     -0.103127
   13   H     13    1.2000  1.000     -0.073167      0.965907      1.990713
   14   H     14    1.2000  1.000     -0.372641     -0.800519      1.943011
   15  Li     15    1.8200  1.000     -0.985165      4.205727     -0.314893
 ------------------------------------------------------------------------------
 Separa: There are  2 disjoint cavities,
 GePol: Number of generator spheres                  =      15
 GePol: Total number of spheres                      =      15
 GePol: Number of exposed spheres                    =      15 (100.00%)
 GePol: Number of points                             =    1649
 GePol: Average weight of points                     =       0.13
 GePol: Minimum weight of points                     =   0.24D-07
 GePol: Maximum weight of points                     =    0.17992
 GePol: Number of points with low weight             =      71
 GePol: Fraction of low-weight points (<1% of avg)   =       4.31%
 ------------------------------------------------------------------------------
 Atomic radii for non-electrostatic terms: SMD-CDS.
 ------------------------------------------------------------------------------
 PCM non-electrostatic energy =         0.0011754170 Hartrees.
 Nuclear repulsion after PCM non-electrostatic terms =      392.3272797433 Hartrees.
 Leave Link  301 at Mon May 16 17:53:24 2022, MaxMem=  2147483648 cpu:         0.9
 (Enter /gpfs/runtime/opt/gaussian/g09-D01/g09/l302.exe)
 NPDir=0 NMtPBC=     1 NCelOv=     1 NCel=       1 NClECP=     1 NCelD=      1
         NCelK=      1 NCelE2=     1 NClLst=     1 CellRange=     0.0.
 One-electron integrals computed using PRISM.
 NBasis=   201 RedAO= T EigKep=  2.42D-05  NBF=   201
 NBsUse=   201 1.00D-06 EigRej= -1.00D+00 NBFU=   201
 Precomputing XC quadrature grid using
 IXCGrd= 4 IRadAn=           0 IRanWt=          -1 IRanGd=           0 AccXCQ= 0.00D+00.
 Generated NRdTot=       0 NPtTot=           0 NUsed=           0 NTot=          32
 NSgBfM=   201   201   201   201   201 MxSgAt=    15 MxSgA2=    15.
 Leave Link  302 at Mon May 16 17:53:25 2022, MaxMem=  2147483648 cpu:         1.8
 (Enter /gpfs/runtime/opt/gaussian/g09-D01/g09/l303.exe)
 DipDrv:  MaxL=1.
 Leave Link  303 at Mon May 16 17:53:25 2022, MaxMem=  2147483648 cpu:         0.8
 (Enter /gpfs/runtime/opt/gaussian/g09-D01/g09/l401.exe)
 ExpMin= 7.40D-03 ExpMax= 5.48D+03 ExpMxC= 8.25D+02 IAcc=3 IRadAn=         5 AccDes= 0.00D+00
 Harris functional with IExCor= 1009 and IRadAn=       5 diagonalized for initial guess.
 HarFok:  IExCor= 1009 AccDes= 0.00D+00 IRadAn=         5 IDoV= 1 UseB2=F ITyADJ=14
 ICtDFT=  3500011 ScaDFX=  1.000000  1.000000  1.000000  1.000000
 FoFCou: FMM=F IPFlag=           0 FMFlag=      100000 FMFlg1=           0
         NFxFlg=           0 DoJE=T BraDBF=F KetDBF=T FulRan=T
         wScrn=  0.000000 ICntrl=     500 IOpCl=  0 I1Cent=   200000004 NGrid=           0
         NMat0=    1 NMatS0=      1 NMatT0=    0 NMatD0=    1 NMtDS0=    0 NMtDT0=    0
 Petite list used in FoFCou.
 Harris En= -426.790514990237    
 JPrj=0 DoOrth=F DoCkMO=F.
 Leave Link  401 at Mon May 16 17:53:25 2022, MaxMem=  2147483648 cpu:         5.6
 (Enter /gpfs/runtime/opt/gaussian/g09-D01/g09/l502.exe)
 Closed shell SCF:
 Using DIIS extrapolation, IDIIS=  1040.
 Integral symmetry usage will be decided dynamically.
 Keep R1 ints in memory in canonical form, NReq=212266196.
 IVT=      142861 IEndB=      142861 NGot=  2147483648 MDV=  1941265337
 LenX=  1941265337 LenY=  1941224495
 Requested convergence on RMS density matrix=1.00D-08 within 128 cycles.
 Requested convergence on MAX density matrix=1.00D-06.
 Requested convergence on             energy=1.00D-06.
 No special actions if energy rises.
 FoFCou: FMM=F IPFlag=           0 FMFlag=           0 FMFlg1=           0
         NFxFlg=           0 DoJE=F BraDBF=F KetDBF=F FulRan=T
         wScrn=  0.000000 ICntrl=     600 IOpCl=  0 I1Cent=           0 NGrid=           0
         NMat0=    1 NMatS0=  20301 NMatT0=    0 NMatD0=    1 NMtDS0=    0 NMtDT0=    0
 Symmetry not used in FoFCou.

 Cycle   1  Pass 1  IDiag  1:
 PCMQM: There is more than one cavity, setting IComp=0.
 Inv3:  Mode=1 IEnd=     8157603.
 Iteration    1 A*A^-1 deviation from unit magnitude is 6.99D-15 for    612.
 Iteration    1 A*A^-1 deviation from orthogonality  is 4.80D-15 for    881     97.
 Iteration    1 A^-1*A deviation from unit magnitude is 5.77D-15 for    526.
 Iteration    1 A^-1*A deviation from orthogonality  is 8.30D-11 for    764    745.
 E= -426.898688195197    
 DIIS: error= 2.30D-02 at cycle   1 NSaved=   1.
 NSaved= 1 IEnMin= 1 EnMin= -426.898688195197     IErMin= 1 ErrMin= 2.30D-02
 ErrMax= 2.30D-02  0.00D+00 EMaxC= 1.00D-01 BMatC= 2.36D-01 BMatP= 2.36D-01
 IDIUse=3 WtCom= 7.70D-01 WtEn= 2.30D-01
 Coeff-Com:  0.100D+01
 Coeff-En:   0.100D+01
 Coeff:      0.100D+01
 Gap=     0.512 Goal=   None    Shift=    0.000
 GapD=    0.512 DampG=2.000 DampE=0.500 DampFc=1.0000 IDamp=-1.
 RMSDP=8.27D-03 MaxDP=6.01D-01              OVMax= 2.05D-01

 Cycle   2  Pass 1  IDiag  1:
 PCMQM: There is more than one cavity, setting IComp=0.
 E= -426.880533841544     Delta-E=        0.018154353654 Rises=F Damp=F
 DIIS: error= 3.14D-02 at cycle   2 NSaved=   2.
 NSaved= 2 IEnMin= 1 EnMin= -426.898688195197     IErMin= 1 ErrMin= 2.30D-02
 ErrMax= 3.14D-02  0.00D+00 EMaxC= 1.00D-01 BMatC= 2.59D-01 BMatP= 2.36D-01
 IDIUse=3 WtCom= 6.86D-01 WtEn= 3.14D-01
 Coeff-Com:  0.513D+00 0.487D+00
 Coeff-En:   0.525D+00 0.475D+00
 Coeff:      0.517D+00 0.483D+00
 Gap=     0.304 Goal=   None    Shift=    0.000
 RMSDP=5.29D-03 MaxDP=4.76D-01 DE= 1.82D-02 OVMax= 1.16D-01

 Cycle   3  Pass 1  IDiag  1:
 PCMQM: There is more than one cavity, setting IComp=0.
 E= -427.069216964462     Delta-E=       -0.188683122918 Rises=F Damp=F
 DIIS: error= 5.35D-03 at cycle   3 NSaved=   3.
 NSaved= 3 IEnMin= 3 EnMin= -427.069216964462     IErMin= 3 ErrMin= 5.35D-03
 ErrMax= 5.35D-03  0.00D+00 EMaxC= 1.00D-01 BMatC= 1.27D-02 BMatP= 2.36D-01
 IDIUse=3 WtCom= 9.47D-01 WtEn= 5.35D-02
 Coeff-Com:  0.133D+00 0.210D+00 0.658D+00
 Coeff-En:   0.000D+00 0.000D+00 0.100D+01
 Coeff:      0.126D+00 0.199D+00 0.676D+00
 Gap=     0.328 Goal=   None    Shift=    0.000
 RMSDP=7.99D-04 MaxDP=2.91D-02 DE=-1.89D-01 OVMax= 4.21D-02

 Cycle   4  Pass 1  IDiag  1:
 PCMQM: There is more than one cavity, setting IComp=0.
 E= -427.077612339740     Delta-E=       -0.008395375278 Rises=F Damp=F
 DIIS: error= 1.91D-03 at cycle   4 NSaved=   4.
 NSaved= 4 IEnMin= 4 EnMin= -427.077612339740     IErMin= 4 ErrMin= 1.91D-03
 ErrMax= 1.91D-03  0.00D+00 EMaxC= 1.00D-01 BMatC= 1.77D-03 BMatP= 1.27D-02
 IDIUse=3 WtCom= 9.81D-01 WtEn= 1.91D-02
 Coeff-Com:  0.354D-02 0.345D-01 0.313D+00 0.649D+00
 Coeff-En:   0.000D+00 0.000D+00 0.720D-01 0.928D+00
 Coeff:      0.348D-02 0.338D-01 0.309D+00 0.654D+00
 Gap=     0.320 Goal=   None    Shift=    0.000
 RMSDP=2.80D-04 MaxDP=1.15D-02 DE=-8.40D-03 OVMax= 9.28D-03

 Cycle   5  Pass 1  IDiag  1:
 PCMQM: There is more than one cavity, setting IComp=0.
 E= -427.078943001981     Delta-E=       -0.001330662242 Rises=F Damp=F
 DIIS: error= 3.57D-04 at cycle   5 NSaved=   5.
 NSaved= 5 IEnMin= 5 EnMin= -427.078943001981     IErMin= 5 ErrMin= 3.57D-04
 ErrMax= 3.57D-04  0.00D+00 EMaxC= 1.00D-01 BMatC= 6.69D-05 BMatP= 1.77D-03
 IDIUse=3 WtCom= 9.96D-01 WtEn= 3.57D-03
 Coeff-Com: -0.273D-02 0.703D-02 0.111D+00 0.286D+00 0.599D+00
 Coeff-En:   0.000D+00 0.000D+00 0.000D+00 0.000D+00 0.100D+01
 Coeff:     -0.272D-02 0.700D-02 0.110D+00 0.285D+00 0.600D+00
 Gap=     0.318 Goal=   None    Shift=    0.000
 RMSDP=8.45D-05 MaxDP=6.59D-03 DE=-1.33D-03 OVMax= 1.70D-03

 Cycle   6  Pass 1  IDiag  1:
 PCMQM: There is more than one cavity, setting IComp=0.
 E= -427.078993254845     Delta-E=       -0.000050252863 Rises=F Damp=F
 DIIS: error= 7.74D-05 at cycle   6 NSaved=   6.
 NSaved= 6 IEnMin= 6 EnMin= -427.078993254845     IErMin= 6 ErrMin= 7.74D-05
 ErrMax= 7.74D-05  0.00D+00 EMaxC= 1.00D-01 BMatC= 3.71D-06 BMatP= 6.69D-05
 IDIUse=1 WtCom= 1.00D+00 WtEn= 0.00D+00
 Coeff-Com: -0.123D-02-0.705D-03 0.124D-01 0.389D-01 0.211D+00 0.740D+00
 Coeff:     -0.123D-02-0.705D-03 0.124D-01 0.389D-01 0.211D+00 0.740D+00
 Gap=     0.319 Goal=   None    Shift=    0.000
 RMSDP=2.26D-05 MaxDP=1.12D-03 DE=-5.03D-05 OVMax= 4.17D-04

 Cycle   7  Pass 1  IDiag  1:
 PCMQM: There is more than one cavity, setting IComp=0.
 E= -427.078996554416     Delta-E=       -0.000003299571 Rises=F Damp=F
 DIIS: error= 2.49D-05 at cycle   7 NSaved=   7.
 NSaved= 7 IEnMin= 7 EnMin= -427.078996554416     IErMin= 7 ErrMin= 2.49D-05
 ErrMax= 2.49D-05  0.00D+00 EMaxC= 1.00D-01 BMatC= 2.34D-07 BMatP= 3.71D-06
 IDIUse=1 WtCom= 1.00D+00 WtEn= 0.00D+00
 Coeff-Com: -0.622D-05-0.961D-03-0.663D-02-0.191D-01-0.282D-02 0.137D+00
 Coeff-Com:  0.892D+00
 Coeff:     -0.622D-05-0.961D-03-0.663D-02-0.191D-01-0.282D-02 0.137D+00
 Coeff:      0.892D+00
 Gap=     0.319 Goal=   None    Shift=    0.000
 RMSDP=7.36D-06 MaxDP=3.47D-04 DE=-3.30D-06 OVMax= 2.17D-04

 Cycle   8  Pass 1  IDiag  1:
 PCMQM: There is more than one cavity, setting IComp=0.
 E= -427.078996872570     Delta-E=       -0.000000318155 Rises=F Damp=F
 DIIS: error= 8.14D-06 at cycle   8 NSaved=   8.
 NSaved= 8 IEnMin= 8 EnMin= -427.078996872570     IErMin= 8 ErrMin= 8.14D-06
 ErrMax= 8.14D-06  0.00D+00 EMaxC= 1.00D-01 BMatC= 3.12D-08 BMatP= 2.34D-07
 IDIUse=1 WtCom= 1.00D+00 WtEn= 0.00D+00
 Coeff-Com:  0.126D-03-0.243D-03-0.266D-02-0.930D-02-0.193D-01-0.373D-01
 Coeff-Com:  0.239D+00 0.830D+00
 Coeff:      0.126D-03-0.243D-03-0.266D-02-0.930D-02-0.193D-01-0.373D-01
 Coeff:      0.239D+00 0.830D+00
 Gap=     0.319 Goal=   None    Shift=    0.000
 RMSDP=2.49D-06 MaxDP=1.33D-04 DE=-3.18D-07 OVMax= 8.45D-05

 Cycle   9  Pass 1  IDiag  1:
 PCMQM: There is more than one cavity, setting IComp=0.
 E= -427.078996911987     Delta-E=       -0.000000039417 Rises=F Damp=F
 DIIS: error= 1.93D-06 at cycle   9 NSaved=   9.
 NSaved= 9 IEnMin= 9 EnMin= -427.078996911987     IErMin= 9 ErrMin= 1.93D-06
 ErrMax= 1.93D-06  0.00D+00 EMaxC= 1.00D-01 BMatC= 1.89D-09 BMatP= 3.12D-08
 IDIUse=1 WtCom= 1.00D+00 WtEn= 0.00D+00
 Coeff-Com:  0.202D-04 0.277D-04 0.271D-03 0.224D-03-0.228D-02-0.178D-01
 Coeff-Com: -0.440D-01 0.124D+00 0.940D+00
 Coeff:      0.202D-04 0.277D-04 0.271D-03 0.224D-03-0.228D-02-0.178D-01
 Coeff:     -0.440D-01 0.124D+00 0.940D+00
 Gap=     0.319 Goal=   None    Shift=    0.000
 RMSDP=8.66D-07 MaxDP=4.68D-05 DE=-3.94D-08 OVMax= 2.62D-05

 Cycle  10  Pass 1  IDiag  1:
 PCMQM: There is more than one cavity, setting IComp=0.
 E= -427.078996914543     Delta-E=       -0.000000002555 Rises=F Damp=F
 DIIS: error= 7.50D-07 at cycle  10 NSaved=  10.
 NSaved=10 IEnMin=10 EnMin= -427.078996914543     IErMin=10 ErrMin= 7.50D-07
 ErrMax= 7.50D-07  0.00D+00 EMaxC= 1.00D-01 BMatC= 4.24D-10 BMatP= 1.89D-09
 IDIUse=1 WtCom= 1.00D+00 WtEn= 0.00D+00
 Coeff-Com: -0.277D-06 0.297D-04 0.349D-03 0.816D-03 0.490D-03-0.515D-02
 Coeff-Com: -0.363D-01-0.527D-02 0.436D+00 0.609D+00
 Coeff:     -0.277D-06 0.297D-04 0.349D-03 0.816D-03 0.490D-03-0.515D-02
 Coeff:     -0.363D-01-0.527D-02 0.436D+00 0.609D+00
 Gap=     0.319 Goal=   None    Shift=    0.000
 RMSDP=1.98D-07 MaxDP=7.44D-06 DE=-2.56D-09 OVMax= 1.01D-05

 Cycle  11  Pass 1  IDiag  1:
 PCMQM: There is more than one cavity, setting IComp=0.
 E= -427.078996914952     Delta-E=       -0.000000000410 Rises=F Damp=F
 DIIS: error= 1.69D-07 at cycle  11 NSaved=  11.
 NSaved=11 IEnMin=11 EnMin= -427.078996914952     IErMin=11 ErrMin= 1.69D-07
 ErrMax= 1.69D-07  0.00D+00 EMaxC= 1.00D-01 BMatC= 2.28D-11 BMatP= 4.24D-10
 IDIUse=1 WtCom= 1.00D+00 WtEn= 0.00D+00
 Coeff-Com: -0.214D-05 0.502D-05 0.740D-04 0.206D-03 0.396D-03 0.615D-03
 Coeff-Com: -0.559D-02-0.194D-01 0.965D-02 0.174D+00 0.840D+00
 Coeff:     -0.214D-05 0.502D-05 0.740D-04 0.206D-03 0.396D-03 0.615D-03
 Coeff:     -0.559D-02-0.194D-01 0.965D-02 0.174D+00 0.840D+00
 Gap=     0.319 Goal=   None    Shift=    0.000
 RMSDP=7.57D-08 MaxDP=4.00D-06 DE=-4.10D-10 OVMax= 2.43D-06

 Cycle  12  Pass 1  IDiag  1:
 PCMQM: There is more than one cavity, setting IComp=0.
 E= -427.078996914982     Delta-E=       -0.000000000030 Rises=F Damp=F
 DIIS: error= 5.61D-08 at cycle  12 NSaved=  12.
 NSaved=12 IEnMin=12 EnMin= -427.078996914982     IErMin=12 ErrMin= 5.61D-08
 ErrMax= 5.61D-08  0.00D+00 EMaxC= 1.00D-01 BMatC= 2.24D-12 BMatP= 2.28D-11
 IDIUse=1 WtCom= 1.00D+00 WtEn= 0.00D+00
 Coeff-Com: -0.684D-06 0.138D-06 0.102D-04 0.313D-04 0.119D-03 0.499D-03
 Coeff-Com: -0.488D-04-0.665D-02-0.213D-01 0.237D-01 0.302D+00 0.701D+00
 Coeff:     -0.684D-06 0.138D-06 0.102D-04 0.313D-04 0.119D-03 0.499D-03
 Coeff:     -0.488D-04-0.665D-02-0.213D-01 0.237D-01 0.302D+00 0.701D+00
 Gap=     0.319 Goal=   None    Shift=    0.000
 RMSDP=2.33D-08 MaxDP=1.50D-06 DE=-2.98D-11 OVMax= 3.54D-07

 Cycle  13  Pass 1  IDiag  1:
 PCMQM: There is more than one cavity, setting IComp=0.
 E= -427.078996915000     Delta-E=       -0.000000000019 Rises=F Damp=F
 DIIS: error= 3.12D-08 at cycle  13 NSaved=  13.
 NSaved=13 IEnMin=13 EnMin= -427.078996915000     IErMin=13 ErrMin= 3.12D-08
 ErrMax= 3.12D-08  0.00D+00 EMaxC= 1.00D-01 BMatC= 4.79D-13 BMatP= 2.24D-12
 IDIUse=1 WtCom= 1.00D+00 WtEn= 0.00D+00
 Coeff-Com:  0.310D-07-0.796D-06-0.644D-05-0.188D-04-0.780D-05 0.128D-03
 Coeff-Com:  0.912D-03 0.311D-03-0.119D-01-0.211D-01 0.147D-02 0.338D+00
 Coeff-Com:  0.692D+00
 Coeff:      0.310D-07-0.796D-06-0.644D-05-0.188D-04-0.780D-05 0.128D-03
 Coeff:      0.912D-03 0.311D-03-0.119D-01-0.211D-01 0.147D-02 0.338D+00
 Coeff:      0.692D+00
 Gap=     0.319 Goal=   None    Shift=    0.000
 RMSDP=7.70D-09 MaxDP=4.45D-07 DE=-1.85D-11 OVMax= 1.88D-07

 PCMQM: There is more than one cavity, setting IComp=0.
 Error on total polarization charges =  0.01882
 SCF Done:  E(RM062X) =  -427.078996915     A.U. after   13 cycles
            NFock= 13  Conv=0.77D-08     -V/T= 2.0087
 KE= 4.233943337320D+02 PE=-1.774273049287D+03 EE= 5.314724388963D+02
 SMD-CDS (non-electrostatic) energy       (kcal/mol) =       0.74
 (included in total energy above)
 Leave Link  502 at Mon May 16 17:53:41 2022, MaxMem=  2147483648 cpu:        98.3
 (Enter /gpfs/runtime/opt/gaussian/g09-D01/g09/l601.exe)
 Copying SCF densities to generalized density rwf, IOpCl= 0 IROHF=0.

 **********************************************************************

            Population analysis using the SCF density.

 **********************************************************************

 Orbital symmetries:
       Occupied  (A) (A) (A) (A) (A) (A) (A) (A) (A) (A) (A) (A)
                 (A) (A) (A) (A) (A) (A) (A) (A) (A) (A) (A) (A)
                 (A) (A) (A) (A) (A) (A) (A)
       Virtual   (A) (A) (A) (A) (A) (A) (A) (A) (A) (A) (A) (A)
                 (A) (A) (A) (A) (A) (A) (A) (A) (A) (A) (A) (A)
                 (A) (A) (A) (A) (A) (A) (A) (A) (A) (A) (A) (A)
                 (A) (A) (A) (A) (A) (A) (A) (A) (A) (A) (A) (A)
                 (A) (A) (A) (A) (A) (A) (A) (A) (A) (A) (A) (A)
                 (A) (A) (A) (A) (A) (A) (A) (A) (A) (A) (A) (A)
                 (A) (A) (A) (A) (A) (A) (A) (A) (A) (A) (A) (A)
                 (A) (A) (A) (A) (A) (A) (A) (A) (A) (A) (A) (A)
                 (A) (A) (A) (A) (A) (A) (A) (A) (A) (A) (A) (A)
                 (A) (A) (A) (A) (A) (A) (A) (A) (A) (A) (A) (A)
                 (A) (A) (A) (A) (A) (A) (A) (A) (A) (A) (A) (A)
                 (A) (A) (A) (A) (A) (A) (A) (A) (A) (A) (A) (A)
                 (A) (A) (A) (A) (A) (A) (A) (A) (A) (A) (A) (A)
                 (A) (A) (A) (A) (A) (A) (A) (A) (A) (A) (A) (A)
                 (A) (A)
 The electronic state is 1-A.
 Alpha  occ. eigenvalues --  -19.71348 -19.71345 -19.64154 -10.74151 -10.63038
 Alpha  occ. eigenvalues --  -10.61971 -10.55883 -10.54943  -2.22747  -1.29702
 Alpha  occ. eigenvalues --   -1.18141  -1.15857  -0.92333  -0.84806  -0.76521
 Alpha  occ. eigenvalues --   -0.70516  -0.66743  -0.61486  -0.59823  -0.58946
 Alpha  occ. eigenvalues --   -0.52970  -0.52009  -0.51361  -0.50105  -0.46832
 Alpha  occ. eigenvalues --   -0.44686  -0.43306  -0.38443  -0.38201  -0.37949
 Alpha  occ. eigenvalues --   -0.33986
 Alpha virt. eigenvalues --   -0.02099   0.00127   0.00444   0.00501   0.01688
 Alpha virt. eigenvalues --    0.02270   0.03744   0.04421   0.04810   0.04902
 Alpha virt. eigenvalues --    0.05349   0.05737   0.06031   0.07209   0.07355
 Alpha virt. eigenvalues --    0.07872   0.08543   0.09208   0.10245   0.10443
 Alpha virt. eigenvalues --    0.11343   0.11699   0.12982   0.14904   0.15129
 Alpha virt. eigenvalues --    0.15315   0.16036   0.16818   0.18110   0.18536
 Alpha virt. eigenvalues --    0.19084   0.21100   0.22259   0.22663   0.23486
 Alpha virt. eigenvalues --    0.24484   0.24858   0.25489   0.26332   0.27887
 Alpha virt. eigenvalues --    0.28658   0.29588   0.29839   0.30826   0.30985
 Alpha virt. eigenvalues --    0.32199   0.32427   0.33651   0.34176   0.35071
 Alpha virt. eigenvalues --    0.37039   0.38374   0.40684   0.41235   0.43088
 Alpha virt. eigenvalues --    0.44749   0.45336   0.46241   0.48352   0.51712
 Alpha virt. eigenvalues --    0.52507   0.54644   0.55652   0.57529   0.60477
 Alpha virt. eigenvalues --    0.65379   0.70424   0.72665   0.74446   0.74987
 Alpha virt. eigenvalues --    0.77824   0.79533   0.81486   0.85193   0.87369
 Alpha virt. eigenvalues --    0.89349   0.90484   0.93219   0.98119   0.99609
 Alpha virt. eigenvalues --    1.01351   1.03362   1.07853   1.09820   1.12613
 Alpha virt. eigenvalues --    1.15600   1.18273   1.20984   1.23389   1.25737
 Alpha virt. eigenvalues --    1.29400   1.32556   1.33585   1.34267   1.36560
 Alpha virt. eigenvalues --    1.37193   1.38351   1.39896   1.42863   1.44946
 Alpha virt. eigenvalues --    1.45359   1.48382   1.50214   1.52768   1.53975
 Alpha virt. eigenvalues --    1.61777   1.65964   1.68999   1.73300   1.75500
 Alpha virt. eigenvalues --    1.79920   1.85508   1.86811   1.88436   1.88915
 Alpha virt. eigenvalues --    1.90751   1.91897   1.95824   1.96667   1.98974
 Alpha virt. eigenvalues --    1.99538   2.03329   2.07697   2.10009   2.13930
 Alpha virt. eigenvalues --    2.15928   2.17771   2.19947   2.25402   2.30346
 Alpha virt. eigenvalues --    2.33335   2.40915   2.44442   2.46337   2.51797
 Alpha virt. eigenvalues --    2.52521   2.55276   2.56519   2.61508   2.62382
 Alpha virt. eigenvalues --    2.64952   2.66564   2.70199   2.72313   2.75338
 Alpha virt. eigenvalues --    2.81325   2.83949   2.88062   2.88476   2.90857
 Alpha virt. eigenvalues --    2.93857   2.96846   3.05462   3.11769   3.24509
 Alpha virt. eigenvalues --    3.25995   3.30922   3.33323   3.41734   3.46565
 Alpha virt. eigenvalues --    3.51011   3.68992   4.19089   4.36058   4.44617
 Alpha virt. eigenvalues --    4.49219   4.60669   4.65286   4.66869   4.78768
          Condensed to atoms (all electrons):
               1          2          3          4          5          6
     1  C    5.324676  -0.056677   0.275004   0.018475   0.021038  -0.008693
     2  C   -0.056677   7.530377  -1.643801  -0.136737   0.050943  -0.013844
     3  C    0.275004  -1.643801   7.436709   0.435032  -0.120392  -0.019009
     4  H    0.018475  -0.136737   0.435032   0.489730  -0.005115   0.000587
     5  C    0.021038   0.050943  -0.120392  -0.005115   5.370261   0.151599
     6  O   -0.008693  -0.013844  -0.019009   0.000587   0.151599   8.378662
     7  C   -0.029251   0.173269  -0.349479   0.013206  -0.085259   0.240426
     8  O    0.002346   0.035234  -0.054669  -0.000645   0.018399  -0.112140
     9  O   -0.033984  -0.153859   0.380780  -0.032002  -0.078952  -0.162739
    10  H    0.399313  -0.051717   0.016192   0.000257   0.000566   0.000034
    11  H    0.424912  -0.091430   0.011797   0.002583   0.008756  -0.000139
    12  H    0.009284   0.288231   0.027709   0.002369   0.007331  -0.000947
    13  H    0.006524  -0.031184  -0.009385  -0.004685   0.406526  -0.038893
    14  H   -0.017565   0.087429  -0.181018   0.002767   0.447741  -0.032932
    15  Li   0.005106  -0.026400   0.014872   0.003410   0.000382  -0.002423
               7          8          9         10         11         12
     1  C   -0.029251   0.002346  -0.033984   0.399313   0.424912   0.009284
     2  C    0.173269   0.035234  -0.153859  -0.051717  -0.091430   0.288231
     3  C   -0.349479  -0.054669   0.380780   0.016192   0.011797   0.027709
     4  H    0.013206  -0.000645  -0.032002   0.000257   0.002583   0.002369
     5  C   -0.085259   0.018399  -0.078952   0.000566   0.008756   0.007331
     6  O    0.240426  -0.112140  -0.162739   0.000034  -0.000139  -0.000947
     7  C    4.568420   0.494250   0.180369   0.000065  -0.000215  -0.003168
     8  O    0.494250   8.290289  -0.101174  -0.000004   0.000001  -0.000097
     9  O    0.180369  -0.101174   8.327815   0.000068   0.000268   0.001036
    10  H    0.000065  -0.000004   0.000068   0.474644  -0.023545  -0.004507
    11  H   -0.000215   0.000001   0.000268  -0.023545   0.480602   0.003283
    12  H   -0.003168  -0.000097   0.001036  -0.004507   0.003283   0.462839
    13  H    0.003726  -0.000592   0.004054   0.000005  -0.000040  -0.000013
    14  H    0.019689  -0.000264   0.005422  -0.000028   0.000046   0.000991
    15  Li  -0.001921  -0.000411  -0.002197  -0.000024   0.000228   0.000010
              13         14         15
     1  C    0.006524  -0.017565   0.005106
     2  C   -0.031184   0.087429  -0.026400
     3  C   -0.009385  -0.181018   0.014872
     4  H   -0.004685   0.002767   0.003410
     5  C    0.406526   0.447741   0.000382
     6  O   -0.038893  -0.032932  -0.002423
     7  C    0.003726   0.019689  -0.001921
     8  O   -0.000592  -0.000264  -0.000411
     9  O    0.004054   0.005422  -0.002197
    10  H    0.000005  -0.000028  -0.000024
    11  H   -0.000040   0.000046   0.000228
    12  H   -0.000013   0.000991   0.000010
    13  H    0.474791  -0.029827   0.001351
    14  H   -0.029827   0.482779  -0.000604
    15  Li   0.001351  -0.000604   2.006024
 Mulliken charges:
               1
     1  C   -0.340506
     2  C    0.040166
     3  C   -0.220342
     4  H    0.210769
     5  C   -0.193823
     6  O   -0.379550
     7  C    0.775872
     8  O   -0.570522
     9  O   -0.334904
    10  H    0.188682
    11  H    0.182893
    12  H    0.205649
    13  H    0.217644
    14  H    0.215375
    15  Li   1.002598
 Sum of Mulliken charges =   1.00000
 Mulliken charges with hydrogens summed into heavy atoms:
               1
     1  C    0.031069
     2  C    0.245815
     3  C   -0.009573
     5  C    0.239195
     6  O   -0.379550
     7  C    0.775872
     8  O   -0.570522
     9  O   -0.334904
    15  Li   1.002598
 Electronic spatial extent (au):  <R**2>=           1125.7849
 Charge=              1.0000 electrons
 Dipole moment (field-independent basis, Debye):
    X=            -11.7592    Y=             21.0681    Z=              2.0921  Tot=             24.2182
 Quadrupole moment (field-independent basis, Debye-Ang):
   XX=            -52.4842   YY=             42.4063   ZZ=            -49.2975
   XY=            -17.6433   XZ=              4.4548   YZ=             -6.1583
 Traceless Quadrupole moment (field-independent basis, Debye-Ang):
   XX=            -32.6924   YY=             62.1981   ZZ=            -29.5057
   XY=            -17.6433   XZ=              4.4548   YZ=             -6.1583
 Octapole moment (field-independent basis, Debye-Ang**2):
  XXX=            -57.0059  YYY=            380.0621  ZZZ=              9.9229  XYY=            -87.7963
  XXY=             31.6980  XXZ=              2.6294  XZZ=             -3.7546  YZZ=             13.2284
  YYZ=            -25.8843  XYZ=              4.8198
 Hexadecapole moment (field-independent basis, Debye-Ang**3):
 XXXX=           -982.5359 YYYY=           1353.6196 ZZZZ=           -235.0302 XXXY=            -19.4113
 XXXZ=             45.4489 YYYX=           -373.9212 YYYZ=           -119.1461 ZZZX=             -1.9067
 ZZZY=             -8.9817 XXYY=            -85.5356 XXZZ=           -223.4670 YYZZ=            -56.4863
 XXYZ=             -8.9082 YYXZ=             28.4539 ZZXY=            -11.8261
 N-N= 3.923272797433D+02 E-N=-1.774273051266D+03  KE= 4.233943337320D+02
 No NMR shielding tensors so no spin-rotation constants.
 Leave Link  601 at Mon May 16 17:53:42 2022, MaxMem=  2147483648 cpu:         3.7
 (Enter /gpfs/runtime/opt/gaussian/g09-D01/g09/l701.exe)
 Compute integral first derivatives.
 ... and contract with generalized density number  0.
 R6Disp: Adding Grimme-D3 dispersion energy 1st derivatives to the gradient.
 D1PCM: PCM CHGder 1st derivatives, ID1Alg=3 FixD1E=F DoIter=F DoCFld=F I1PDM=0.
 GePol: Maximum number of non-zero 1st derivatives   =     313
 Leave Link  701 at Mon May 16 17:53:42 2022, MaxMem=  2147483648 cpu:         4.6
 (Enter /gpfs/runtime/opt/gaussian/g09-D01/g09/l702.exe)
 L702 exits ... SP integral derivatives will be done elsewhere.
 Leave Link  702 at Mon May 16 17:53:43 2022, MaxMem=  2147483648 cpu:         0.1
 (Enter /gpfs/runtime/opt/gaussian/g09-D01/g09/l703.exe)
 Compute integral first derivatives, UseDBF=F ICtDFT=           0.
 Integral derivatives from FoFJK, PRISM(SPDF).
 Calling FoFJK, ICntrl=      2127 FMM=F ISym2X=0 I1Cent= 0 IOpClX= 0 NMat=1 NMatS=1 NMatT=0.
 FoFJK:  IHMeth= 1 ICntrl=    2127 DoSepK=F KAlg= 0 I1Cent=   0 FoldK=F
 IRaf=         0 NMat=   1 IRICut=       1 DoRegI=T DoRafI=F ISym2E= 0.
 FoFCou: FMM=F IPFlag=           0 FMFlag=      100000 FMFlg1=         800
         NFxFlg=           0 DoJE=F BraDBF=F KetDBF=F FulRan=T
         wScrn=  0.000000 ICntrl=    2127 IOpCl=  0 I1Cent=           0 NGrid=           0
         NMat0=    1 NMatS0=      1 NMatT0=    0 NMatD0=    1 NMtDS0=    0 NMtDT0=    0
 Symmetry not used in FoFCou.
 Leave Link  703 at Mon May 16 17:53:45 2022, MaxMem=  2147483648 cpu:        20.2
 (Enter /gpfs/runtime/opt/gaussian/g09-D01/g09/l716.exe)
 Dipole        =-4.62640756D+00 8.28883747D+00 8.23112329D-01
 ***** Axes restored to original set *****
 -------------------------------------------------------------------
 Center     Atomic                   Forces (Hartrees/Bohr)
 Number     Number              X              Y              Z
 -------------------------------------------------------------------
      1        6           0.019784772    0.003171544   -0.003171036
      2        6          -0.021440838    0.003698729   -0.008620766
      3        6           0.003920663   -0.002569262    0.017701972
      4        1          -0.002576350    0.005999927   -0.002302244
      5        6          -0.005623637    0.006486039   -0.003251107
      6        8           0.017979989   -0.001720584   -0.004530582
      7        6          -0.026097346    0.014565547    0.003946669
      8        8           0.015287407   -0.008325578   -0.002083924
      9        8           0.005951824   -0.016904777   -0.002067866
     10        1           0.006256528   -0.000268589   -0.000327554
     11        1           0.005122600    0.001176708   -0.004650983
     12        1          -0.007600512   -0.001235358    0.005112838
     13        1          -0.005578801   -0.002024326    0.001665393
     14        1          -0.005736893   -0.002202722    0.002265918
     15        3           0.000350594    0.000152704    0.000313272
 -------------------------------------------------------------------
 Cartesian Forces:  Max     0.026097346 RMS     0.008907362
 Leave Link  716 at Mon May 16 17:53:45 2022, MaxMem=  2147483648 cpu:         0.2
 (Enter /gpfs/runtime/opt/gaussian/g09-D01/g09/l103.exe)

 GradGradGradGradGradGradGradGradGradGradGradGradGradGradGradGradGradGrad
 Berny optimization.
 FormGI is forming the generalized inverse of G from B-inverse, IUseBI=4.
 Internal  Forces:  Max     0.032361668 RMS     0.005948136
 Search for a local minimum.
 Step number   1 out of a maximum of   81
 All quantities printed in internal units (Hartrees-Bohrs-Radians)
 RMS Force = .59481D-02 SwitMx=.10000D-02 MixMth= 1
 Mixed Optimization -- RFO/linear search
 Second derivative matrix not updated -- first step.
 ITU=  0
     Eigenvalues ---    0.00234   0.00518   0.00674   0.01126   0.01714
     Eigenvalues ---    0.01716   0.02503   0.03279   0.03279   0.04463
     Eigenvalues ---    0.05006   0.05643   0.05968   0.07330   0.10623
     Eigenvalues ---    0.10726   0.13755   0.16000   0.16000   0.16000
     Eigenvalues ---    0.18727   0.22000   0.24633   0.25000   0.25000
     Eigenvalues ---    0.27749   0.31658   0.34803   0.34807   0.34819
     Eigenvalues ---    0.35335   0.35989   0.35994   0.36002   0.37085
     Eigenvalues ---    0.52858   0.56163   0.64487   0.97952
 RFO step:  Lambda=-8.62060502D-03 EMin= 2.34136270D-03
 Linear search not attempted -- first point.
 Iteration  1 RMS(Cart)=  0.05314003 RMS(Int)=  0.00139440
 Iteration  2 RMS(Cart)=  0.00158889 RMS(Int)=  0.00061968
 Iteration  3 RMS(Cart)=  0.00000140 RMS(Int)=  0.00061968
 Iteration  4 RMS(Cart)=  0.00000000 RMS(Int)=  0.00061968
 ITry= 1 IFail=0 DXMaxC= 1.75D-01 DCOld= 1.00D+10 DXMaxT= 3.00D-01 DXLimC= 3.00D+00 Rises=F
 Variable       Old X    -DE/DX   Delta X   Delta X   Delta X     New X
                                 (Linear)    (Quad)   (Total)
    R1        2.47557   0.03236   0.00000   0.04952   0.04952   2.52509
    R2        2.04091   0.00433   0.00000   0.01176   0.01176   2.05266
    R3        2.04078   0.00548   0.00000   0.01487   0.01487   2.05565
    R4        2.84773  -0.00460   0.00000  -0.01415  -0.01415   2.83358
    R5        2.04099   0.00639   0.00000   0.01735   0.01735   2.05833
    R6        2.05990   0.00092   0.00000   0.00257   0.00257   2.06248
    R7        2.91175   0.00329   0.00000   0.01358   0.01333   2.92508
    R8        2.75415  -0.00795   0.00000  -0.01946  -0.01951   2.73465
    R9        5.71187  -0.00035   0.00000  -0.01777  -0.01777   5.69410
   R10        2.75416  -0.01155   0.00000  -0.03077  -0.03084   2.72331
   R11        2.05996  -0.00024   0.00000  -0.00068  -0.00068   2.05928
   R12        2.05970   0.00026   0.00000   0.00072   0.00072   2.06042
   R13        2.52699  -0.00114   0.00000  -0.00327  -0.00307   2.52392
   R14        2.29470  -0.01753   0.00000  -0.01774  -0.01774   2.27696
   R15        2.53254  -0.00075   0.00000  -0.00195  -0.00173   2.53081
    A1        2.09433   0.00294   0.00000   0.01745   0.01743   2.11175
    A2        2.09445   0.00295   0.00000   0.01748   0.01746   2.11191
    A3        2.09440  -0.00590   0.00000  -0.03498  -0.03501   2.05940
    A4        2.09438   0.00900   0.00000   0.03936   0.03917   2.13355
    A5        2.09445   0.00229   0.00000   0.02055   0.02035   2.11480
    A6        2.09435  -0.01128   0.00000  -0.05991  -0.06008   2.03428
    A7        1.92837  -0.00372   0.00000  -0.01037  -0.01263   1.91574
    A8        1.92932   0.00743   0.00000   0.05933   0.05903   1.98835
    A9        1.92939   0.00042   0.00000  -0.00471  -0.00482   1.92458
   A10        1.92930   0.00219   0.00000   0.03013   0.02899   1.95829
   A11        1.92927  -0.00074   0.00000  -0.04860  -0.04836   1.88091
   A12        1.81553  -0.00550   0.00000  -0.02601  -0.02591   1.78962
   A13        2.66479   0.00163   0.00000   0.00630   0.00630   2.67109
   A14        1.81335   0.00074   0.00000   0.00501   0.00486   1.81822
   A15        1.92933   0.00461   0.00000   0.04089   0.04025   1.96958
   A16        1.92936   0.00431   0.00000   0.04184   0.04121   1.97058
   A17        1.92922  -0.00400   0.00000  -0.04418  -0.04435   1.88487
   A18        1.92940  -0.00410   0.00000  -0.04487  -0.04474   1.88465
   A19        1.93028  -0.00141   0.00000   0.00140  -0.00148   1.92880
   A20        1.90554   0.00568   0.00000   0.02084   0.02070   1.92624
   A21        2.14810   0.00445   0.00000   0.01781   0.01773   2.16583
   A22        1.98773  -0.00911   0.00000  -0.03641  -0.03625   1.95148
   A23        2.14735   0.00466   0.00000   0.01861   0.01852   2.16587
   A24        1.90262   0.00819   0.00000   0.03653   0.03644   1.93906
    D1        3.14157   0.00165   0.00000   0.04680   0.04728  -3.09434
    D2        0.00000   0.00071   0.00000   0.01037   0.00989   0.00989
    D3       -0.00484   0.00113   0.00000   0.03418   0.03466   0.02981
    D4        3.13677   0.00019   0.00000  -0.00226  -0.00273   3.13404
    D5       -0.01224  -0.00327   0.00000  -0.06346  -0.06291  -0.07515
    D6        2.12900   0.00205   0.00000   0.00826   0.00848   2.13748
    D7       -2.15350  -0.00006   0.00000   0.00851   0.00874  -2.14476
    D8        3.12933  -0.00233   0.00000  -0.02703  -0.02714   3.10218
    D9       -1.01261   0.00299   0.00000   0.04469   0.04425  -0.96837
   D10        0.98808   0.00088   0.00000   0.04494   0.04450   1.03258
   D11       -2.93780   0.00374   0.00000   0.05506   0.05441  -2.88339
   D12        1.20414  -0.00463   0.00000  -0.03371  -0.03380   1.17034
   D13       -0.79647   0.00122   0.00000   0.00873   0.00946  -0.78701
   D14        2.07010  -0.00026   0.00000  -0.00266  -0.00320   2.06691
   D15       -2.14319  -0.00230   0.00000  -0.03181  -0.03305  -2.17624
   D16       -0.00002   0.00204   0.00000   0.02682   0.02666   0.02664
   D17       -2.07238   0.00161   0.00000   0.04548   0.04638  -2.02600
   D18       -0.00249  -0.00043   0.00000   0.01633   0.01653   0.01404
   D19        2.14068   0.00391   0.00000   0.07496   0.07624   2.21692
   D20       -0.00122  -0.00129   0.00000  -0.01152  -0.01124  -0.01246
   D21        2.06868  -0.00333   0.00000  -0.04067  -0.04110   2.02758
   D22       -2.07134   0.00101   0.00000   0.01796   0.01861  -2.05272
   D23       -2.06910  -0.00417   0.00000  -0.03791  -0.03754  -2.10664
   D24        2.07336   0.00077   0.00000   0.01177   0.01240   2.08575
   D25        0.00217   0.00166   0.00000   0.01482   0.01469   0.01685
   D26       -0.00011   0.00053   0.00000   0.00473   0.00473   0.00462
   D27       -2.07007  -0.00335   0.00000  -0.02458  -0.02333  -2.09341
   D28        2.06999   0.00401   0.00000   0.03483   0.03370   2.10369
   D29       -3.14092  -0.00003   0.00000   0.00874   0.00868  -3.13225
   D30        0.00159   0.00053   0.00000   0.00485   0.00457   0.00616
   D31       -0.00245  -0.00145   0.00000  -0.01301  -0.01286  -0.01530
   D32        3.14007  -0.00089   0.00000  -0.01690  -0.01696   3.12310
         Item               Value     Threshold  Converged?
 Maximum Force            0.032362     0.000450     NO 
 RMS     Force            0.005948     0.000300     NO 
 Maximum Displacement     0.174721     0.001800     NO 
 RMS     Displacement     0.052847     0.001200     NO 
 Predicted change in Energy=-4.603167D-03
 Lowest energy point so far.  Saving SCF results.
 GradGradGradGradGradGradGradGradGradGradGradGradGradGradGradGradGradGrad

 Leave Link  103 at Mon May 16 17:53:46 2022, MaxMem=  2147483648 cpu:         7.6
 (Enter /gpfs/runtime/opt/gaussian/g09-D01/g09/l202.exe)
                          Input orientation:                          
 ---------------------------------------------------------------------
 Center     Atomic      Atomic             Coordinates (Angstroms)
 Number     Number       Type             X           Y           Z
 ---------------------------------------------------------------------
      1          6           0        3.159989    0.441408    0.053837
      2          6           0        1.908508    0.243165    0.478079
      3          6           0        0.796477   -0.128854   -0.456476
      4          1           0        1.162201   -0.126354   -1.484788
      5          6           0        0.086864   -1.455140   -0.091281
      6          8           0       -1.275843   -1.065949    0.170203
      7          6           0       -1.423687    0.250703    0.001665
      8          8           0       -2.461739    0.840201    0.165267
      9          8           0       -0.277511    0.836933   -0.367382
     10          1           0        3.958829    0.667581    0.754250
     11          1           0        3.412552    0.365290   -1.001496
     12          1           0        1.653972    0.311841    1.534915
     13          1           0        0.080705   -2.171729   -0.912233
     14          1           0        0.485342   -1.914413    0.813759
     15          3           0        0.775242   -0.133085   -4.473019
 ---------------------------------------------------------------------
                    Distance matrix (angstroms):
                    1          2          3          4          5
     1  C    0.000000
     2  C    1.336221   0.000000
     3  C    2.484313   1.499468   0.000000
     4  H    2.584739   2.132220   1.091415   0.000000
     5  C    3.614146   2.554760   1.547886   2.205421   0.000000
     6  O    4.686393   3.456683   2.359107   3.092878   1.441116
     7  C    4.587938   3.366088   2.298496   3.006415   2.280417
     8  O    5.636957   4.421918   3.455663   4.097542   3.439446
     9  O    3.485725   2.417859   1.447112   2.061381   2.337221
    10  H    1.086221   2.111922   3.478597   3.669434   4.495884
    11  H    1.087801   2.113340   2.717550   2.353586   3.899059
    12  H    2.116238   1.089223   2.212498   3.090705   2.867501
    13  H    4.152562   3.332499   2.212100   2.383488   1.089725
    14  H    3.644326   2.606382   2.213261   2.989751   1.090328
    15  Li   5.148737   5.093057   4.016602   3.013189   4.628318
                    6          7          8          9         10
     6  O    0.000000
     7  C    1.335603   0.000000
     8  O    2.244946   1.204918   0.000000
     9  O    2.215090   1.339246   2.248239   0.000000
    10  H    5.545090   5.450839   6.449836   4.385580   0.000000
    11  H    5.040077   4.940513   6.007843   3.773741   1.863449
    12  H    3.513483   3.438979   4.369689   2.761355   2.459340
    13  H    2.057824   2.994425   4.086166   3.078511   5.087110
    14  H    2.058113   2.998602   4.085796   3.089813   4.328435
    15  Li   5.161075   5.000538   5.739253   4.348043   6.172571
                   11         12         13         14         15
    11  H    0.000000
    12  H    3.086882   0.000000
    13  H    4.188752   3.825156   0.000000
    14  H    4.130467   2.615716   1.791366   0.000000
    15  Li   4.388082   6.088136   4.161449   5.586340   0.000000
 Stoichiometry    C5H6LiO3(1+)
 Framework group  C1[X(C5H6LiO3)]
 Deg. of freedom    39
 Full point group                 C1      NOp   1
 RotChk:  IX=0 Diff= 6.04D-02
 Largest Abelian subgroup         C1      NOp   1
 Largest concise Abelian subgroup C1      NOp   1
                         Standard orientation:                         
 ---------------------------------------------------------------------
 Center     Atomic      Atomic             Coordinates (Angstroms)
 Number     Number       Type             X           Y           Z
 ---------------------------------------------------------------------
      1          6           0       -3.017136   -0.496644   -0.376458
      2          6           0       -1.737683   -0.827457   -0.178850
      3          6           0       -0.678646    0.198942    0.091976
      4          1           0       -1.107902    1.199853    0.020534
      5          6           0        0.080213   -0.018363    1.423465
      6          8           0        1.448090   -0.226098    1.020263
      7          6           0        1.557315   -0.151700   -0.308785
      8          8           0        2.590903   -0.297297   -0.910719
      9          8           0        0.378208    0.100437   -0.891634
     10          1           0       -3.775224   -1.259702   -0.527855
     11          1           0       -3.333509    0.544132   -0.374521
     12          1           0       -1.419091   -1.869031   -0.173305
     13          1           0        0.050154    0.854635    2.074980
     14          1           0       -0.251142   -0.907499    1.960546
     15          3           0       -0.908427    4.197536   -0.210582
 ---------------------------------------------------------------------
 Rotational constants (GHZ):      2.2472041      1.1566947      1.0035433
 Leave Link  202 at Mon May 16 17:53:46 2022, MaxMem=  2147483648 cpu:         0.2
 (Enter /gpfs/runtime/opt/gaussian/g09-D01/g09/l301.exe)
 Standard basis: 6-31+G(d,p) (6D, 7F)
 Ernie: Thresh=  0.10000D-02 Tol=  0.10000D-05 Strict=F.
 There are   201 symmetry adapted cartesian basis functions of A   symmetry.
 There are   201 symmetry adapted basis functions of A   symmetry.
   201 basis functions,   330 primitive gaussians,   201 cartesian basis functions
    31 alpha electrons       31 beta electrons
       nuclear repulsion energy       391.8754630198 Hartrees.
 IExCor= 4336 DFT=T Ex+Corr=M062X ExCW=0 ScaHFX=  0.540000
 ScaDFX=  1.000000  1.000000  1.000000  1.000000 ScalE2=  1.000000  1.000000
 IRadAn=      0 IRanWt=     -1 IRanGd=            0 ICorTp=0 IEmpDi=131
 NAtoms=   15 NActive=   15 NUniq=   15 SFac= 1.00D+00 NAtFMM=   60 NAOKFM=F Big=F
 Integral buffers will be    131072 words long.
 Raffenetti 2 integral format.
 Two-electron integral symmetry is turned on.
 R6Disp:  Grimme-D3 Dispersion energy=       -0.0005255777 Hartrees.
 Nuclear repulsion after empirical dispersion term =      391.8749374421 Hartrees.
 ------------------------------------------------------------------------------
 Polarizable Continuum Model (PCM)
 =================================
 Model                : PCM (using non-symmetric T matrix).
 Atomic radii         : SMD-Coulomb.
 Polarization charges : Total charges.
 Charge compensation  : None.
 Solution method      : On-the-fly selection.
 Cavity type          : VdW (van der Waals Surface) (Alpha=1.000).
 Cavity algorithm     : GePol (No added spheres)
                        Default sphere list used, NSphG=   15.
                        Lebedev-Laikov grids with approx.  5.0 points / Ang**2.
                        Smoothing algorithm: Karplus/York (Gamma=1.0000).
                        Polarization charges: spherical gaussians, with
                                              point-specific exponents (IZeta= 3).
                        Self-potential: point-specific (ISelfS= 7).
                        Self-field    : sphere-specific E.n sum rule (ISelfD= 2).
 1st derivatives      : Analytical E(r).r(x)/FMM algorithm (CHGder, D1EAlg=3).
                        Cavity 1st derivative terms included.
 Solvent              : DiMethylSulfoxide, Eps=  46.826000 Eps(inf)=   2.007889
 ------------------------------------------------------------------------------
 Spheres list:
 ISph  on   Nord     Re0    Alpha      Xe            Ye            Ze
    1   C      1    1.8500  1.000     -3.017136     -0.496644     -0.376458
    2   C      2    1.8500  1.000     -1.737683     -0.827457     -0.178850
    3   C      3    1.8500  1.000     -0.678646      0.198942      0.091976
    4   H      4    1.2000  1.000     -1.107902      1.199853      0.020534
    5   C      5    1.8500  1.000      0.080213     -0.018363      1.423465
    6   O      6    2.2940  1.000      1.448090     -0.226098      1.020263
    7   C      7    1.8500  1.000      1.557315     -0.151700     -0.308785
    8   O      8    2.2940  1.000      2.590903     -0.297297     -0.910719
    9   O      9    2.2940  1.000      0.378208      0.100437     -0.891634
   10   H     10    1.2000  1.000     -3.775224     -1.259702     -0.527855
   11   H     11    1.2000  1.000     -3.333509      0.544132     -0.374521
   12   H     12    1.2000  1.000     -1.419091     -1.869031     -0.173305
   13   H     13    1.2000  1.000      0.050154      0.854635      2.074980
   14   H     14    1.2000  1.000     -0.251142     -0.907499      1.960546
   15  Li     15    1.8200  1.000     -0.908427      4.197536     -0.210582
 ------------------------------------------------------------------------------
 GePol: Number of generator spheres                  =      15
 GePol: Total number of spheres                      =      15
 GePol: Number of exposed spheres                    =      15 (100.00%)
 GePol: Number of points                             =    1650
 GePol: Average weight of points                     =       0.13
 GePol: Minimum weight of points                     =   0.11D-07
 GePol: Maximum weight of points                     =    0.17992
 GePol: Number of points with low weight             =      54
 GePol: Fraction of low-weight points (<1% of avg)   =       3.27%
 GePol: Cavity surface area                          =    208.319 Ang**2
 GePol: Cavity volume                                =    182.550 Ang**3
 ------------------------------------------------------------------------------
 Atomic radii for non-electrostatic terms: SMD-CDS.
 ------------------------------------------------------------------------------
 PCM non-electrostatic energy =         0.0012556368 Hartrees.
 Nuclear repulsion after PCM non-electrostatic terms =      391.8761930789 Hartrees.
 Leave Link  301 at Mon May 16 17:53:47 2022, MaxMem=  2147483648 cpu:         0.4
 (Enter /gpfs/runtime/opt/gaussian/g09-D01/g09/l302.exe)
 NPDir=0 NMtPBC=     1 NCelOv=     1 NCel=       1 NClECP=     1 NCelD=      1
         NCelK=      1 NCelE2=     1 NClLst=     1 CellRange=     0.0.
 One-electron integrals computed using PRISM.
 NBasis=   201 RedAO= T EigKep=  2.60D-05  NBF=   201
 NBsUse=   201 1.00D-06 EigRej= -1.00D+00 NBFU=   201
 Precomputing XC quadrature grid using
 IXCGrd= 4 IRadAn=           0 IRanWt=          -1 IRanGd=           0 AccXCQ= 0.00D+00.
 Generated NRdTot=       0 NPtTot=           0 NUsed=           0 NTot=          32
 NSgBfM=   201   201   201   201   201 MxSgAt=    15 MxSgA2=    15.
 Leave Link  302 at Mon May 16 17:53:47 2022, MaxMem=  2147483648 cpu:         1.4
 (Enter /gpfs/runtime/opt/gaussian/g09-D01/g09/l303.exe)
 DipDrv:  MaxL=1.
 Leave Link  303 at Mon May 16 17:53:47 2022, MaxMem=  2147483648 cpu:         0.5
 (Enter /gpfs/runtime/opt/gaussian/g09-D01/g09/l401.exe)
 Initial guess from the checkpoint file:  "/gpfs/data/yqi27/cgu13/CHEM1560Q/Gaussian/4427-96-7/inp6/Gau-130108.chk"
 B after Tr=     0.000000    0.000000    0.000000
         Rot=    0.999776   -0.019449   -0.006655    0.005090 Ang=  -2.43 deg.
 Guess basis will be translated and rotated to current coordinates.
 JPrj=2 DoOrth=T DoCkMO=T.
 Generating alternative initial guess.
 ExpMin= 7.40D-03 ExpMax= 5.48D+03 ExpMxC= 8.25D+02 IAcc=3 IRadAn=         5 AccDes= 0.00D+00
 Harris functional with IExCor= 1009 and IRadAn=       5 diagonalized for initial guess.
 HarFok:  IExCor= 1009 AccDes= 0.00D+00 IRadAn=         5 IDoV= 1 UseB2=F ITyADJ=14
 ICtDFT=  3500011 ScaDFX=  1.000000  1.000000  1.000000  1.000000
 FoFCou: FMM=F IPFlag=           0 FMFlag=      100000 FMFlg1=           0
         NFxFlg=           0 DoJE=T BraDBF=F KetDBF=T FulRan=T
         wScrn=  0.000000 ICntrl=     500 IOpCl=  0 I1Cent=   200000004 NGrid=           0
         NMat0=    1 NMatS0=      1 NMatT0=    0 NMatD0=    1 NMtDS0=    0 NMtDT0=    0
 Petite list used in FoFCou.
 Harris En= -426.787538616778    
 Leave Link  401 at Mon May 16 17:53:48 2022, MaxMem=  2147483648 cpu:         8.0
 (Enter /gpfs/runtime/opt/gaussian/g09-D01/g09/l502.exe)
 Closed shell SCF:
 Using DIIS extrapolation, IDIIS=  1040.
 Integral symmetry usage will be decided dynamically.
 Keep R1 ints in memory in canonical form, NReq=212268946.
 IVT=      142861 IEndB=      142861 NGot=  2147483648 MDV=  1941265337
 LenX=  1941265337 LenY=  1941224495
 Requested convergence on RMS density matrix=1.00D-08 within 128 cycles.
 Requested convergence on MAX density matrix=1.00D-06.
 Requested convergence on             energy=1.00D-06.
 No special actions if energy rises.
 FoFCou: FMM=F IPFlag=           0 FMFlag=           0 FMFlg1=           0
         NFxFlg=           0 DoJE=F BraDBF=F KetDBF=F FulRan=T
         wScrn=  0.000000 ICntrl=     600 IOpCl=  0 I1Cent=           0 NGrid=           0
         NMat0=    1 NMatS0=  20301 NMatT0=    0 NMatD0=    1 NMtDS0=    0 NMtDT0=    0
 Symmetry not used in FoFCou.

 Cycle   1  Pass 1  IDiag  1:
 Inv3:  Mode=1 IEnd=     8167500.
 Iteration    1 A*A^-1 deviation from unit magnitude is 6.77D-15 for   1032.
 Iteration    1 A*A^-1 deviation from orthogonality  is 4.12D-15 for    614     17.
 Iteration    1 A^-1*A deviation from unit magnitude is 5.66D-15 for   1276.
 Iteration    1 A^-1*A deviation from orthogonality  is 2.32D-13 for    898    894.
 E= -427.079910373089    
 DIIS: error= 1.46D-03 at cycle   1 NSaved=   1.
 NSaved= 1 IEnMin= 1 EnMin= -427.079910373089     IErMin= 1 ErrMin= 1.46D-03
 ErrMax= 1.46D-03  0.00D+00 EMaxC= 1.00D-01 BMatC= 1.96D-03 BMatP= 1.96D-03
 IDIUse=3 WtCom= 9.85D-01 WtEn= 1.46D-02
 Coeff-Com:  0.100D+01
 Coeff-En:   0.100D+01
 Coeff:      0.100D+01
 Gap=     0.624 Goal=   None    Shift=    0.000
 GapD=    0.624 DampG=2.000 DampE=1.000 DampFc=2.0000 IDamp=-1.
 RMSDP=1.37D-03 MaxDP=9.33D-02              OVMax= 1.31D-02

 Cycle   2  Pass 1  IDiag  1:
 E= -427.082934544931     Delta-E=       -0.003024171842 Rises=F Damp=F
 DIIS: error= 3.41D-04 at cycle   2 NSaved=   2.
 NSaved= 2 IEnMin= 2 EnMin= -427.082934544931     IErMin= 2 ErrMin= 3.41D-04
 ErrMax= 3.41D-04  0.00D+00 EMaxC= 1.00D-01 BMatC= 1.34D-04 BMatP= 1.96D-03
 IDIUse=3 WtCom= 9.97D-01 WtEn= 3.41D-03
 Coeff-Com:  0.110D-02 0.999D+00
 Coeff-En:   0.000D+00 0.100D+01
 Coeff:      0.110D-02 0.999D+00
 Gap=     0.318 Goal=   None    Shift=    0.000
 RMSDP=2.70D-04 MaxDP=2.14D-02 DE=-3.02D-03 OVMax= 3.99D-03

 Cycle   3  Pass 1  IDiag  1:
 E= -427.083031343133     Delta-E=       -0.000096798202 Rises=F Damp=F
 DIIS: error= 3.73D-04 at cycle   3 NSaved=   3.
 NSaved= 3 IEnMin= 3 EnMin= -427.083031343133     IErMin= 2 ErrMin= 3.41D-04
 ErrMax= 3.73D-04  0.00D+00 EMaxC= 1.00D-01 BMatC= 1.08D-04 BMatP= 1.34D-04
 IDIUse=3 WtCom= 9.96D-01 WtEn= 3.73D-03
 Coeff-Com: -0.637D-01 0.499D+00 0.565D+00
 Coeff-En:   0.000D+00 0.130D+00 0.870D+00
 Coeff:     -0.634D-01 0.498D+00 0.566D+00
 Gap=     0.316 Goal=   None    Shift=    0.000
 RMSDP=8.50D-05 MaxDP=4.19D-03 DE=-9.68D-05 OVMax= 2.29D-03

 Cycle   4  Pass 1  IDiag  1:
 E= -427.083112864431     Delta-E=       -0.000081521299 Rises=F Damp=F
 DIIS: error= 1.24D-04 at cycle   4 NSaved=   4.
 NSaved= 4 IEnMin= 4 EnMin= -427.083112864431     IErMin= 4 ErrMin= 1.24D-04
 ErrMax= 1.24D-04  0.00D+00 EMaxC= 1.00D-01 BMatC= 7.12D-06 BMatP= 1.08D-04
 IDIUse=3 WtCom= 9.99D-01 WtEn= 1.24D-03
 Coeff-Com: -0.263D-01 0.114D+00 0.246D+00 0.666D+00
 Coeff-En:   0.000D+00 0.000D+00 0.000D+00 0.100D+01
 Coeff:     -0.263D-01 0.114D+00 0.246D+00 0.667D+00
 Gap=     0.316 Goal=   None    Shift=    0.000
 RMSDP=2.33D-05 MaxDP=6.58D-04 DE=-8.15D-05 OVMax= 6.22D-04

 Cycle   5  Pass 1  IDiag  1:
 E= -427.083118333017     Delta-E=       -0.000005468586 Rises=F Damp=F
 DIIS: error= 3.08D-05 at cycle   5 NSaved=   5.
 NSaved= 5 IEnMin= 5 EnMin= -427.083118333017     IErMin= 5 ErrMin= 3.08D-05
 ErrMax= 3.08D-05  0.00D+00 EMaxC= 1.00D-01 BMatC= 6.33D-07 BMatP= 7.12D-06
 IDIUse=1 WtCom= 1.00D+00 WtEn= 0.00D+00
 Coeff-Com: -0.317D-02-0.116D-01 0.334D-01 0.266D+00 0.715D+00
 Coeff:     -0.317D-02-0.116D-01 0.334D-01 0.266D+00 0.715D+00
 Gap=     0.316 Goal=   None    Shift=    0.000
 RMSDP=8.12D-06 MaxDP=4.64D-04 DE=-5.47D-06 OVMax= 2.61D-04

 Cycle   6  Pass 1  IDiag  1:
 E= -427.083118991906     Delta-E=       -0.000000658889 Rises=F Damp=F
 DIIS: error= 9.69D-06 at cycle   6 NSaved=   6.
 NSaved= 6 IEnMin= 6 EnMin= -427.083118991906     IErMin= 6 ErrMin= 9.69D-06
 ErrMax= 9.69D-06  0.00D+00 EMaxC= 1.00D-01 BMatC= 5.27D-08 BMatP= 6.33D-07
 IDIUse=1 WtCom= 1.00D+00 WtEn= 0.00D+00
 Coeff-Com:  0.142D-02-0.159D-01-0.124D-01 0.326D-01 0.256D+00 0.738D+00
 Coeff:      0.142D-02-0.159D-01-0.124D-01 0.326D-01 0.256D+00 0.738D+00
 Gap=     0.316 Goal=   None    Shift=    0.000
 RMSDP=2.60D-06 MaxDP=1.24D-04 DE=-6.59D-07 OVMax= 7.45D-05

 Cycle   7  Pass 1  IDiag  1:
 E= -427.083119041658     Delta-E=       -0.000000049752 Rises=F Damp=F
 DIIS: error= 4.51D-06 at cycle   7 NSaved=   7.
 NSaved= 7 IEnMin= 7 EnMin= -427.083119041658     IErMin= 7 ErrMin= 4.51D-06
 ErrMax= 4.51D-06  0.00D+00 EMaxC= 1.00D-01 BMatC= 1.19D-08 BMatP= 5.27D-08
 IDIUse=1 WtCom= 1.00D+00 WtEn= 0.00D+00
 Coeff-Com:  0.102D-02-0.642D-02-0.102D-01-0.147D-01 0.463D-01 0.376D+00
 Coeff-Com:  0.608D+00
 Coeff:      0.102D-02-0.642D-02-0.102D-01-0.147D-01 0.463D-01 0.376D+00
 Coeff:      0.608D+00
 Gap=     0.316 Goal=   None    Shift=    0.000
 RMSDP=1.24D-06 MaxDP=1.08D-04 DE=-4.98D-08 OVMax= 2.94D-05

 Cycle   8  Pass 1  IDiag  1:
 E= -427.083119052782     Delta-E=       -0.000000011124 Rises=F Damp=F
 DIIS: error= 6.55D-07 at cycle   8 NSaved=   8.
 NSaved= 8 IEnMin= 8 EnMin= -427.083119052782     IErMin= 8 ErrMin= 6.55D-07
 ErrMax= 6.55D-07  0.00D+00 EMaxC= 1.00D-01 BMatC= 3.39D-10 BMatP= 1.19D-08
 IDIUse=1 WtCom= 1.00D+00 WtEn= 0.00D+00
 Coeff-Com:  0.591D-04 0.418D-03-0.825D-03-0.655D-02-0.166D-01-0.316D-02
 Coeff-Com:  0.114D+00 0.912D+00
 Coeff:      0.591D-04 0.418D-03-0.825D-03-0.655D-02-0.166D-01-0.316D-02
 Coeff:      0.114D+00 0.912D+00
 Gap=     0.316 Goal=   None    Shift=    0.000
 RMSDP=3.97D-07 MaxDP=2.41D-05 DE=-1.11D-08 OVMax= 1.16D-05

 Cycle   9  Pass 1  IDiag  1:
 E= -427.083119053292     Delta-E=       -0.000000000510 Rises=F Damp=F
 DIIS: error= 3.56D-07 at cycle   9 NSaved=   9.
 NSaved= 9 IEnMin= 9 EnMin= -427.083119053292     IErMin= 9 ErrMin= 3.56D-07
 ErrMax= 3.56D-07  0.00D+00 EMaxC= 1.00D-01 BMatC= 1.15D-10 BMatP= 3.39D-10
 IDIUse=1 WtCom= 1.00D+00 WtEn= 0.00D+00
 Coeff-Com: -0.745D-04 0.878D-03 0.616D-03-0.188D-02-0.130D-01-0.398D-01
 Coeff-Com: -0.257D-02 0.451D+00 0.605D+00
 Coeff:     -0.745D-04 0.878D-03 0.616D-03-0.188D-02-0.130D-01-0.398D-01
 Coeff:     -0.257D-02 0.451D+00 0.605D+00
 Gap=     0.316 Goal=   None    Shift=    0.000
 RMSDP=1.05D-07 MaxDP=2.84D-06 DE=-5.10D-10 OVMax= 3.70D-06

 Cycle  10  Pass 1  IDiag  1:
 E= -427.083119053392     Delta-E=       -0.000000000100 Rises=F Damp=F
 DIIS: error= 9.31D-08 at cycle  10 NSaved=  10.
 NSaved=10 IEnMin=10 EnMin= -427.083119053392     IErMin=10 ErrMin= 9.31D-08
 ErrMax= 9.31D-08  0.00D+00 EMaxC= 1.00D-01 BMatC= 4.15D-12 BMatP= 1.15D-10
 IDIUse=1 WtCom= 1.00D+00 WtEn= 0.00D+00
 Coeff-Com: -0.257D-04 0.185D-03 0.244D-03 0.201D-03-0.158D-02-0.986D-02
 Coeff-Com: -0.113D-01 0.187D-01 0.157D+00 0.847D+00
 Coeff:     -0.257D-04 0.185D-03 0.244D-03 0.201D-03-0.158D-02-0.986D-02
 Coeff:     -0.113D-01 0.187D-01 0.157D+00 0.847D+00
 Gap=     0.316 Goal=   None    Shift=    0.000
 RMSDP=2.55D-08 MaxDP=4.88D-07 DE=-9.96D-11 OVMax= 1.05D-06

 Cycle  11  Pass 1  IDiag  1:
 E= -427.083119053411     Delta-E=       -0.000000000020 Rises=F Damp=F
 DIIS: error= 2.68D-08 at cycle  11 NSaved=  11.
 NSaved=11 IEnMin=11 EnMin= -427.083119053411     IErMin=11 ErrMin= 2.68D-08
 ErrMax= 2.68D-08  0.00D+00 EMaxC= 1.00D-01 BMatC= 5.51D-13 BMatP= 4.15D-12
 IDIUse=1 WtCom= 1.00D+00 WtEn= 0.00D+00
 Coeff-Com: -0.275D-05-0.600D-05 0.325D-04 0.210D-03 0.474D-03-0.123D-03
 Coeff-Com: -0.360D-02-0.305D-01 0.474D-02 0.308D+00 0.721D+00
 Coeff:     -0.275D-05-0.600D-05 0.325D-04 0.210D-03 0.474D-03-0.123D-03
 Coeff:     -0.360D-02-0.305D-01 0.474D-02 0.308D+00 0.721D+00
 Gap=     0.316 Goal=   None    Shift=    0.000
 RMSDP=1.28D-08 MaxDP=1.01D-06 DE=-1.98D-11 OVMax= 2.67D-07

 Cycle  12  Pass 1  IDiag  1:
 E= -427.083119053395     Delta-E=        0.000000000017 Rises=F Damp=F
 DIIS: error= 7.31D-09 at cycle  12 NSaved=  12.
 NSaved=12 IEnMin=11 EnMin= -427.083119053411     IErMin=12 ErrMin= 7.31D-09
 ErrMax= 7.31D-09  0.00D+00 EMaxC= 1.00D-01 BMatC= 3.57D-14 BMatP= 5.51D-13
 IDIUse=1 WtCom= 1.00D+00 WtEn= 0.00D+00
 Coeff-Com:  0.187D-05-0.210D-04-0.160D-04 0.396D-04 0.300D-03 0.103D-02
 Coeff-Com:  0.985D-04-0.114D-01-0.153D-01 0.334D-02 0.201D+00 0.821D+00
 Coeff:      0.187D-05-0.210D-04-0.160D-04 0.396D-04 0.300D-03 0.103D-02
 Coeff:      0.985D-04-0.114D-01-0.153D-01 0.334D-02 0.201D+00 0.821D+00
 Gap=     0.316 Goal=   None    Shift=    0.000
 RMSDP=4.96D-09 MaxDP=3.99D-07 DE= 1.69D-11 OVMax= 7.83D-08

 Error on total polarization charges =  0.01930
 SCF Done:  E(RM062X) =  -427.083119053     A.U. after   12 cycles
            NFock= 12  Conv=0.50D-08     -V/T= 2.0088
 KE= 4.233504993490D+02 PE=-1.773327063828D+03 EE= 5.310172523465D+02
 SMD-CDS (non-electrostatic) energy       (kcal/mol) =       0.79
 (included in total energy above)
 Leave Link  502 at Mon May 16 17:54:03 2022, MaxMem=  2147483648 cpu:        92.1
 (Enter /gpfs/runtime/opt/gaussian/g09-D01/g09/l701.exe)
 Compute integral first derivatives.
 ... and contract with generalized density number  0.
 R6Disp: Adding Grimme-D3 dispersion energy 1st derivatives to the gradient.
 D1PCM: PCM CHGder 1st derivatives, ID1Alg=3 FixD1E=F DoIter=F DoCFld=F I1PDM=0.
 GePol: Maximum number of non-zero 1st derivatives   =     313
[...]
 ! A8    A(2,3,5)              114.3664         -DE/DX =    0.0                 !
 ! A9    A(2,3,9)              110.3047         -DE/DX =    0.0                 !
 ! A10   A(4,3,5)              111.5668         -DE/DX =    0.0                 !
 ! A11   A(4,3,9)              107.4781         -DE/DX =    0.0                 !
 ! A12   A(5,3,9)              101.3991         -DE/DX =    0.0                 !
 ! A13   A(3,4,15)             160.7913         -DE/DX =    0.0                 !
 ! A14   A(3,5,6)              102.8929         -DE/DX =    0.0                 !
 ! A15   A(3,5,13)             113.2026         -DE/DX =    0.0                 !
 ! A16   A(3,5,14)             112.2449         -DE/DX =    0.0                 !
 ! A17   A(6,5,13)             108.9304         -DE/DX =    0.0                 !
 ! A18   A(6,5,14)             108.5152         -DE/DX =    0.0                 !
 ! A19   A(13,5,14)            110.643          -DE/DX =    0.0                 !
 ! A20   A(5,6,7)              109.0806         -DE/DX =    0.0                 !
 ! A21   A(6,7,8)              124.4194         -DE/DX =    0.0                 !
 ! A22   A(6,7,9)              111.1827         -DE/DX =    0.0                 !
 ! A23   A(8,7,9)              124.3975         -DE/DX =    0.0                 !
 ! A24   A(3,9,7)              109.5639         -DE/DX =    0.0                 !
 ! D1    D(10,1,2,3)          -177.7179         -DE/DX =    0.0                 !
 ! D2    D(10,1,2,12)            0.2063         -DE/DX =    0.0                 !
 ! D3    D(11,1,2,3)             1.8715         -DE/DX =    0.0                 !
 ! D4    D(11,1,2,12)          179.7957         -DE/DX =    0.0                 !
 ! D5    D(1,2,3,4)             -6.0222         -DE/DX =    0.0                 !
 ! D6    D(1,2,3,5)            121.3807         -DE/DX =    0.0                 !
 ! D7    D(1,2,3,9)           -125.1085         -DE/DX =    0.0                 !
 ! D8    D(12,2,3,4)           175.9475         -DE/DX =    0.0                 !
 ! D9    D(12,2,3,5)           -56.6497         -DE/DX =    0.0                 !
 ! D10   D(12,2,3,9)            56.8612         -DE/DX =    0.0                 !
 ! D11   D(2,3,4,15)          -176.3494         -DE/DX =    0.0                 !
 ! D12   D(5,3,4,15)            54.7376         -DE/DX =    0.0                 !
 ! D13   D(9,3,4,15)           -55.5825         -DE/DX =    0.0                 !
 ! D14   D(2,3,5,6)            142.1014         -DE/DX =    0.0                 !
 ! D15   D(2,3,5,13)          -100.4975         -DE/DX =    0.0                 !
 ! D16   D(2,3,5,14)            25.6406         -DE/DX =    0.0                 !
 ! D17   D(4,3,5,6)            -90.7301         -DE/DX =    0.0                 !
 ! D18   D(4,3,5,13)            26.671          -DE/DX =    0.0                 !
 ! D19   D(4,3,5,14)           152.809          -DE/DX =    0.0                 !
 ! D20   D(9,3,5,6)             23.4208         -DE/DX =    0.0                 !
 ! D21   D(9,3,5,13)           140.8219         -DE/DX =    0.0                 !
 ! D22   D(9,3,5,14)           -93.04           -DE/DX =    0.0                 !
 ! D23   D(2,3,9,7)           -141.3731         -DE/DX =    0.0                 !
 ! D24   D(4,3,9,7)             97.3538         -DE/DX =    0.0                 !
 ! D25   D(5,3,9,7)            -19.8153         -DE/DX =    0.0                 !
 ! D26   D(3,5,6,7)            -20.3345         -DE/DX =    0.0                 !
 ! D27   D(13,5,6,7)          -140.7184         -DE/DX =    0.0                 !
 ! D28   D(14,5,6,7)            98.7574         -DE/DX =    0.0                 !
 ! D29   D(5,6,7,8)           -171.6333         -DE/DX =    0.0                 !
 ! D30   D(5,6,7,9)              8.5785         -DE/DX =    0.0                 !
 ! D31   D(6,7,9,3)              8.133          -DE/DX =    0.0                 !
 ! D32   D(8,7,9,3)           -171.6553         -DE/DX =    0.0                 !
 --------------------------------------------------------------------------------
 GradGradGradGradGradGradGradGradGradGradGradGradGradGradGradGradGradGrad

 Leave Link  103 at Mon May 16 18:16:59 2022, MaxMem=  2147483648 cpu:         0.3
 (Enter /gpfs/runtime/opt/gaussian/g09-D01/g09/l9999.exe)
 1\1\GINC-NODE1319\Freq\RM062X\6-31+G(d,p)\C5H6Li1O3(1+)\ROOT\16-May-20
 22\0\\#P Geom=AllCheck Guess=TCheck SCRF=Check GenChk RM062X/6-31+G(d,
 p) Freq\\4427-96-7\\1,1\C,3.1885742358,0.3974136982,-0.030922661\C,1.9
 760354878,0.2052248843,0.4837811137\C,0.7837817095,-0.1010200756,-0.35
 96377273\H,1.027523819,-0.0363945393,-1.4256870677\C,0.0926141073,-1.4
 239128809,-0.0196338762\O,-1.3024915745,-1.1081737041,-0.1810620614\C,
 -1.462405408,0.2218730793,-0.1083264691\O,-2.5266300034,0.7760675063,-
 0.0636493372\O,-0.277585331,0.8529935384,-0.0966081982\H,4.047509521,0
 .5828586995,0.6071177739\H,3.3583502812,0.3682757172,-1.1050653792\H,1
 .8049080058,0.2308300702,1.5594910473\H,0.3531534504,-2.2316709679,-0.
 701565865\H,0.2627450506,-1.7252823193,1.0180297317\Li,0.7158166485,-0
 .0474827064,-4.3909610243\\Version=EM64L-G09RevD.01\State=1-A\HF=-427.
 0844355\RMSD=2.743e-09\RMSF=2.474e-05\ZeroPoint=0.1097938\Thermal=0.11
 81727\Dipole=3.8371652,-1.3259005,-7.8735685\DipoleDeriv=-0.1039394,0.
 0422866,-0.0008783,0.0715289,-0.3490148,0.0224485,-0.0031375,0.0151383
 ,0.0733782,-0.002465,0.0923959,0.0381932,0.0341837,-0.3248242,0.020269
 ,-0.0503243,0.0230366,0.0736942,1.0991352,-0.0826772,-0.1130884,-0.566
 4344,0.5073469,0.0518233,0.0752804,0.073028,0.4126086,-0.0156438,0.006
 4012,0.0206405,0.0326686,0.0398253,0.0481139,0.0382971,0.0028321,-0.13
 93938,0.7730317,-0.3639781,0.0803565,0.0217023,0.3828814,-0.0558126,0.
 0029626,-0.0137221,0.4110561,-1.2235424,0.3094485,-0.0505594,0.4774699
 ,-1.5178954,0.0275643,0.0044226,-0.0315337,-0.3858766,3.2536852,-0.464
 4937,-0.1318675,-0.4219355,2.3047148,-0.0210151,-0.1090449,0.0613274,0
 .5379849,-1.8520862,0.5229744,0.058334,0.5611271,-0.9407938,-0.0082762
 ,0.0616903,-0.0178212,-0.4988505,-2.1272315,-0.0288309,0.1296742,-0.13
 25858,-0.7858585,-0.0214309,0.025097,-0.049653,-0.3955852,0.0052757,-0
 .0401999,-0.0435264,-0.035583,0.1933951,-0.016211,-0.071696,-0.0211892
 ,0.0314727,0.0884497,-0.0230921,-0.0233332,-0.0241757,0.2055111,-0.019
 8585,0.027841,-0.0089308,-0.0639711,0.0402537,-0.0350814,0.0315082,-0.
 0744496,0.1956072,-0.0069193,0.0091212,-0.0129166,-0.051032,0.060335,0
 .0210009,-0.0160281,0.0369966,0.0210479,-0.0336815,0.021889,-0.0928726
 ,0.0427445,0.0102444,0.0433219,0.0174017,0.0194154,0.0730143,0.0110309
 ,-0.0305243,0.0743685,-0.0760454,0.9944976,0.0005237,0.0031729,0.00007
 14,0.9950426,0.0019554,-0.0018741,-0.0010917,1.0278154\Polar=112.43970
 39,-1.5610856,72.5084188,-6.5482792,-0.733639,71.0098232\PG=C01 [X(C5H
 6Li1O3)]\NImag=1\\0.83693663,0.12390690,0.13975558,-0.08127517,0.01579
 824,0.68499698,-0.50792682,-0.07078919,0.17287901,0.80728114,-0.072238
 11,-0.06304286,0.02407939,0.11604877,0.17622835,0.17174798,0.02346808,
 -0.18961335,-0.13830303,0.00818174,0.68075241,-0.02771399,-0.00872596,
 -0.01336526,-0.16911974,-0.03944111,-0.07986807,0.54116253,-0.00733793
 ,0.00474144,-0.00473522,-0.02921812,-0.08353405,-0.02215929,0.06614332
 ,0.41991586,0.00930694,0.00192344,0.01168953,-0.07291897,-0.02420645,-
 0.15945999,-0.00671012,-0.01166092,0.64186658,0.00058978,0.00035782,-0
 .00138564,0.00588340,0.00064936,-0.02619733,-0.06192963,-0.00783574,0.
 04926722,0.07556463,0.00095694,-0.00034743,0.00000292,-0.00089414,0.00
 245056,-0.00803535,-0.00972671,-0.05039907,0.02393546,0.00206131,0.057
 36691,0.00145214,0.00010402,0.00104740,0.00332536,0.00187198,-0.018400
 27,0.05169578,0.01997666,-0.30924752,-0.06055705,-0.01832308,0.3336593
 0,-0.00006422,-0.00060241,-0.00195432,-0.01661295,-0.02058979,0.003686
 54,-0.07885159,-0.06412510,0.01770103,-0.00070580,-0.00350720,-0.00062
 780,0.43143861,0.00226295,0.00014900,0.00115907,-0.01076761,-0.0006955
 5,-0.00203736,-0.03366650,-0.15371519,0.03128125,-0.00223730,-0.004241
 75,0.00125280,-0.05813331,0.60824283,-0.00203482,0.00008527,-0.0015788
 4,-0.00442003,-0.01578823,0.00558858,0.01221907,0.03103188,-0.09944440
 ,0.01297965,0.02897503,-0.00393373,-0.00600677,0.03563520,0.64296178,-
 0.00132109,-0.00045553,-0.00190082,-0.00033657,-0.00669812,0.00511563,
 -0.04553960,-0.01117306,-0.00808181,0.00061970,-0.00113236,0.00088575,
 -0.19782969,-0.00122669,-0.02238703,0.42547137,-0.00063670,-0.00008227
 ,-0.00100593,-0.00237501,-0.00096581,0.00183943,-0.00698072,-0.0139654
 5,-0.00609743,-0.00130104,0.00196577,0.00034699,0.02709234,-0.08881276
 ,0.00560907,-0.04643109,0.49917785,0.00019055,-0.00004436,0.00012113,-
 0.00076344,0.00057085,0.00007987,0.00674056,-0.00528011,0.00376175,-0.
 00148696,-0.00022845,-0.00062330,-0.01727497,0.00374447,-0.07035044,0.
 03187500,0.01129305,0.07959392,0.00216171,0.00037439,0.00187155,-0.002
 41523,-0.00235986,-0.00100237,-0.07450351,0.02992075,0.00641670,0.0048
 5228,-0.00506081,-0.00206971,-0.02111728,0.04044767,-0.00007543,-0.108
 75883,-0.02851781,-0.00319980,1.02165062,0.00083534,0.00031824,0.00117
 169,0.00513096,-0.01002310,-0.00112171,-0.00145659,0.02949895,0.000507
 18,0.00456132,-0.00532397,-0.00165976,0.06582481,-0.02458046,-0.000047
 79,0.01275510,-0.26569080,-0.00923484,-0.24766680,0.68402344,-0.000304
 23,-0.00005475,-0.00038695,-0.00185763,0.00145528,0.00108373,0.0067899
 2,0.00295243,-0.00597770,0.00339268,-0.00294888,-0.00011388,0.00228212
 ,0.00384166,-0.00528290,-0.00382782,-0.01155621,-0.06763972,-0.0245178
 9,0.02750945,0.22987202,-0.00150235,-0.00017352,-0.00182850,-0.0015286
 0,0.00321335,0.00292917,0.01022375,-0.01884902,-0.00379456,-0.00257771
 ,0.00248078,0.00077084,0.01089562,0.00092822,0.00108425,-0.02054644,0.
 05654750,0.00353277,-0.61548552,0.26944317,0.02080578,0.73588323,0.000
 20759,0.00001606,0.00016872,-0.00087679,0.00130100,-0.00039943,-0.0020
 2925,-0.00107510,-0.00044402,0.00008181,0.00017742,0.00009134,-0.01484
 210,-0.00501084,-0.00267918,0.07653137,-0.05964574,-0.00297652,0.26777
 461,-0.24063264,-0.01275494,-0.32873329,0.27712721,0.00009449,0.000007
 96,0.00020496,0.00071839,-0.00067764,-0.00071456,-0.00048525,-0.000323
 13,0.00617462,-0.00100132,0.00086242,-0.00021936,-0.00120521,-0.000985
 18,0.00589700,0.00532658,-0.00371247,0.01868329,0.02074904,-0.01279218
 ,-0.08646013,-0.02754611,0.01666542,0.03794345,-0.00247005,0.00006272,
 -0.00658585,-0.03712198,0.02878194,0.00902854,-0.10349676,0.05725648,0
 .02510479,-0.01790172,0.01965178,0.00781639,-0.01665767,0.01548587,0.0
 0181997,-0.01188992,-0.05372895,-0.00348309,-0.19801321,-0.09257038,-0
 .00084134,-0.11173692,-0.00489685,0.00267919,0.49306889,-0.00223587,-0
 .00092754,-0.00025487,0.00183836,0.00849365,0.00431720,0.02689163,-0.1
 3797439,-0.02109832,0.00667807,-0.00092848,-0.00390332,0.00931913,-0.0
 5009716,-0.01273950,-0.03134048,-0.06979081,-0.00390482,-0.05522873,-0
 .16833488,-0.00903818,0.01475677,0.02840440,0.00129117,0.03293020,0.39
 564923,-0.00118895,-0.00031699,-0.00077234,-0.01239660,0.01125304,0.00
 864503,0.01737618,-0.01798671,-0.07398054,0.02716812,-0.02470939,0.001
 89235,-0.00509203,-0.00016761,0.00552320,-0.00033769,-0.00458891,0.023
 80103,0.00241954,-0.00489686,-0.06570680,0.00463444,0.00157846,0.01916
 968,-0.03410732,0.04078876,0.07960657,-0.23395465,-0.04181271,-0.13399
 365,-0.01681608,-0.00496970,-0.01906393,-0.00151606,-0.00282931,0.0033
 0836,0.00008106,0.00011926,0.00001912,-0.00037786,0.00053942,-0.000743
 62,-0.00063994,-0.00020761,0.00006552,0.00069285,-0.00004104,-0.000099
 21,-0.00045361,0.00015103,0.00003948,-0.00064551,-0.00026404,-0.000091
 10,0.24582584,-0.04134880,-0.04744723,-0.03066464,-0.00512597,0.004108
 47,-0.00264664,0.00020741,0.01343773,0.00038235,0.00004204,-0.00000771
 ,-0.00031572,0.00124077,-0.00076606,0.00101045,0.00107704,-0.00010299,
 -0.00014286,0.00046109,0.00181828,-0.00011536,-0.00058209,-0.00026106,
 0.00008679,-0.00410484,-0.00098883,-0.00077594,0.04696451,0.03430429,-
 0.14037252,-0.03139669,-0.16219834,0.01349599,0.00288410,0.01110384,0.
 00160776,-0.00022087,-0.00072946,0.00013259,0.00005345,0.00033198,-0.0
 0005210,-0.00008832,0.00026278,0.00013966,0.00009465,-0.00000919,-0.00
 033622,-0.00019437,0.00009815,0.00026264,-0.00002909,-0.00004629,0.000
 78385,0.00005810,0.00023251,0.14580917,0.03277128,0.16002816,-0.063433
 20,-0.00233690,0.03747523,-0.00055205,0.00020051,0.02923871,0.00115404
 ,0.00189266,0.00178029,0.00022763,-0.00027656,-0.00065164,0.00014209,-
 0.00006492,0.00001739,0.00006912,0.00000757,-0.00000846,0.00004907,0.0
 0009937,0.00003995,-0.00002868,-0.00001064,0.00000168,-0.00017768,-0.0
 0015290,-0.00025278,0.00699173,-0.00059983,-0.02113861,0.05934476,-0.0
 0197839,-0.03985992,-0.01000814,-0.00125771,0.00729235,0.00363603,0.00
 059197,-0.00842713,0.00095202,-0.00015403,-0.00003909,0.00046219,-0.00
 056443,0.00057895,-0.00032884,-0.00057221,-0.00006729,0.00017139,0.000
 01873,-0.00075570,-0.00002035,0.00019272,0.00012372,-0.00002555,0.0017
 3195,0.00053139,-0.00010390,0.00091287,0.00332900,-0.00437529,0.003832
 38,0.02662066,0.04244822,-0.00878284,-0.33743618,-0.00026444,-0.001017
 57,-0.00899105,-0.00150444,0.00030330,0.00113942,0.00071144,0.00004392
 ,0.00068840,-0.00013265,-0.00014257,0.00024053,0.00002583,-0.00000423,
 -0.00001921,-0.00013683,0.00007267,0.00006249,0.00003990,-0.00003236,-
 0.00001453,-0.00018003,-0.00010112,-0.00004189,0.00480528,-0.00007474,
 -0.00989899,-0.04765747,0.01002693,0.35343445,-0.00086177,-0.00006678,
 0.03010375,-0.06166996,-0.00213931,0.04066249,0.00310853,-0.00204651,-
 0.02608946,-0.00360223,-0.00109172,-0.00245092,0.00095308,0.00148945,-
 0.00077712,-0.00020897,0.00016166,0.00029927,0.00005360,-0.00043326,0.
 00011114,-0.00000611,0.00006044,-0.00007790,0.00193518,-0.00014485,0.0
 0118150,0.00092965,0.00173943,-0.00036961,-0.00376622,-0.00269839,0.00
 183645,0.06301438,-0.00180113,0.00672323,0.00476069,-0.00268548,-0.041
 45149,-0.00769033,0.00169469,0.00132806,-0.00631053,-0.00119171,0.0008
 8758,-0.00051129,0.00084947,0.00087094,-0.00074112,0.00000011,-0.00014
 780,0.00018543,0.00075677,0.00044838,-0.00000250,-0.00042319,0.0000277
 9,-0.00001027,-0.00155162,0.00025442,0.00040605,0.00157230,-0.00742439
 ,0.00040524,-0.00261843,0.01070937,-0.00025460,0.00543268,0.02793884,-
 0.00037052,-0.00066003,-0.00650883,0.04226689,-0.00823097,-0.33109366,
 0.00475932,-0.00076953,-0.01516767,-0.00254024,-0.00076016,-0.00066703
 ,0.00035573,0.00082574,0.00036206,-0.00012471,-0.00005961,0.00008132,0
 .00027551,0.00011371,-0.00004222,-0.00023288,0.00003257,-0.00001941,-0
 .00024664,0.00033489,0.00113038,-0.00015940,0.00047617,0.00086991,0.00
 131466,-0.00046873,0.00091508,-0.04512682,0.00961146,0.34965557,-0.000
 39461,0.00023806,0.00000084,0.00018332,0.00003430,0.00046753,0.0064897
 3,-0.00797349,-0.01143174,0.00085477,0.00044099,0.00004723,-0.06111842
 ,0.03731400,0.03457728,-0.01711436,0.03496912,0.01855059,-0.00705186,-
 0.00720743,0.00261076,-0.00128818,0.00371794,-0.00082582,0.00262466,-0
 .00348052,0.00028788,-0.00007789,-0.00000724,0.00003277,-0.00001458,-0
 .00002968,0.00003280,0.00007035,-0.00009608,0.00010348,0.07281612,-0.0
 0047806,-0.00000359,-0.00030263,0.00006445,-0.00123782,0.00124587,0.00
 600911,-0.01423371,-0.01580130,0.00045819,0.00137022,-0.00007179,0.047
 98950,-0.20680484,-0.13441716,0.00261068,-0.00180423,-0.00124278,-0.00
 135642,-0.00081048,-0.00030165,0.00095541,-0.00031559,-0.00000282,0.00
 077190,-0.00450615,0.00034245,-0.00013457,0.00006969,0.00005670,-0.000
 00876,-0.00000618,0.00002038,0.00002299,0.00003735,-0.00001710,-0.0542
 7591,0.21932404,0.00015353,-0.00011654,0.00010784,-0.00033524,0.000122
 81,-0.00028426,-0.00159309,0.00820221,0.00547501,-0.00035142,0.0000475
 6,0.00088362,0.04216188,-0.14244841,-0.17490378,-0.00143342,0.00588087
 ,0.00766127,-0.00093614,0.00246895,0.00033045,-0.00031079,0.00034618,-
 0.00024746,-0.00108549,0.00323161,0.00045204,0.00004057,0.00000984,-0.
 00001840,-0.00004743,0.00001673,-0.00001966,0.00007019,-0.00002109,0.0
 0017776,-0.04252105,0.14419526,0.17556393,-0.00007575,0.00001493,-0.00
 000806,0.00074983,-0.00049164,0.00154348,0.00051858,-0.00378159,0.0162
 3027,-0.00092139,-0.00337126,0.00038541,-0.05015241,0.00764001,-0.0262
 9273,-0.02196082,0.02137553,-0.03504339,-0.00219655,-0.00931127,-0.004
 65562,-0.00180488,0.00285806,0.00152636,0.00263410,0.00040414,0.000373
 14,-0.00003339,0.00003568,-0.00000683,0.00000785,-0.00001351,-0.000029
 31,0.00005535,0.00006440,-0.00027868,0.00401275,-0.00262811,0.00618187
 ,0.06917667,-0.00011733,0.00002468,-0.00016410,0.00091918,0.00108644,0
 .00138842,0.00047463,-0.00556707,0.02666772,-0.00153373,-0.00380275,0.
 00061925,0.01006886,-0.07514434,0.06433688,0.00604549,-0.00001333,0.00
 709514,0.00039915,-0.00006174,0.00106596,0.00024535,-0.00021147,-0.000
 38938,0.00019276,0.00028714,-0.00082263,0.00000070,-0.00007304,-0.0000
 2069,0.00004323,-0.00004868,-0.00005635,-0.00028956,-0.00020870,-0.000
 43352,-0.00365009,0.00892479,-0.02194286,-0.01278941,0.07482365,0.0000
 8971,-0.00002394,0.00032982,-0.00119313,-0.00044446,0.00105638,0.00169
 033,0.00076868,-0.00514114,0.00015224,0.00105880,0.00095359,-0.0339229
 6,0.06805417,-0.30548021,-0.00518909,0.00200540,0.00487057,0.00013888,
 -0.00197950,0.00016552,-0.00016037,0.00039315,-0.00033116,-0.00031093,
 0.00093243,-0.00013817,0.00004922,-0.00000434,-0.00002976,-0.00009452,
 0.00007132,-0.00006930,0.00054239,0.00014273,0.00024731,-0.00191568,0.
 00630311,-0.01516636,0.04012495,-0.07727861,0.31871285,0.00003039,0.00
 000817,-0.00003311,0.00000228,-0.00000062,0.00001467,0.00001372,-0.000
 04335,-0.00008894,-0.00103477,-0.00065029,-0.00004090,0.00005849,-0.00
 001125,0.00003994,-0.00001395,0.00002520,0.00000585,0.00008184,0.00003
 668,0.00007138,-0.00004359,0.00000608,0.00000637,-0.00015141,0.0000290
 9,0.00002569,-0.00000613,0.00000079,0.00001146,-0.00001388,-0.00001225
 ,0.00000523,-0.00000486,-0.00000280,0.00000428,0.00000820,-0.00000038,
 0.00000604,-0.00000994,-0.00000924,-0.00000104,0.00108361,0.00000261,-
 0.00001738,-0.00000522,-0.00001171,-0.00001015,0.00001333,0.00001410,-
 0.00003090,-0.00003045,-0.00063638,0.00087178,0.00005971,-0.00002055,0
 .00002722,0.00005805,0.00000975,-0.00005433,-0.00000557,0.00003726,0.0
 0010649,-0.00003195,-0.00000217,-0.00002517,0.00000487,-0.00001297,-0.
 00007197,0.00000016,-0.00000112,0.00000387,0.00000179,-0.00000677,0.00
 001855,-0.00000082,0.00000373,0.00000643,0.00000510,0.00000603,-0.0000
 0349,0.00000688,-0.00000597,-0.00001557,0.00000106,0.00062417,-0.00080
 538,0.00006263,0.00000912,-0.00000282,-0.00023315,-0.00005387,0.000247
 29,0.00064731,-0.00009936,-0.00095851,-0.00028398,0.00002575,-0.006251
 55,0.00008150,0.00007509,0.00013837,-0.00008605,-0.00004469,-0.0000123
 0,0.00040317,0.00008334,-0.00000207,-0.00018657,0.00003970,-0.00002009
 ,-0.00039203,0.00008597,0.00018696,0.00001417,0.00000334,0.00000310,-0
 .00001699,-0.00000583,0.00001044,0.00008465,0.00003013,0.00005943,-0.0
 0001687,-0.00000653,-0.00001200,-0.00005086,-0.00006523,0.00002007,-0.
 00002692,-0.00007694,0.00659368\\-0.00000193,-0.00001839,0.00002420,0.
 00000489,-0.00002154,0.00001491,0.00000428,-0.00000788,0.00001127,0.00
 000030,0.00002823,0.00000395,-0.00000394,0.00000325,-0.00003611,-0.000
 01104,0.00000019,-0.00002652,0.00001286,0.00001164,-0.00000200,0.00000
 865,0.00001035,0.00001412,-0.00000341,0.00000175,0.00001691,-0.0000000
 2,-0.00004175,0.00003186,0.00000481,0.00000400,0.00002271,-0.00000511,
 -0.00005061,0.00001419,-0.00001116,0.00001066,-0.00005232,-0.00001430,
 -0.00002892,-0.00003988,0.00001512,0.00009902,0.00000273\\\@


 A SOLDIER'S LIFE IS A LIFE OF HONOR, BUT A DOG WOULD NOT LEAD IT.
 -- PRINCE RUPERT, FOUNDER OF THE HUDSON'S BAY COMPANY
 Job cpu time:       0 days  0 hours 13 minutes 30.5 seconds.
 File lengths (MBytes):  RWF=    588 Int=      0 D2E=      0 Chk=     12 Scr=      8
 Normal termination of Gaussian 09 at Mon May 16 18:16:59 2022.
