 Entering Gaussian System, Link 0=g09
 Initial command:
 /gpfs/runtime/opt/gaussian/g09-D01/g09/l1.exe "/gpfs/data/yqi27/cgu13/CHEM1560Q/Gaussian/872-36-6/inp6/Gau-246364.inp" -scrdir="/gpfs/data/yqi27/cgu13/CHEM1560Q/Gaussian/872-36-6/inp6/"
 Entering Link 1 = /gpfs/runtime/opt/gaussian/g09-D01/g09/l1.exe PID=    246365.
  
 Copyright (c) 1988,1990,1992,1993,1995,1998,2003,2009,2013,
            Gaussian, Inc.  All Rights Reserved.
  
 This is part of the Gaussian(R) 09 program.  It is based on
 the Gaussian(R) 03 system (copyright 2003, Gaussian, Inc.),
 the Gaussian(R) 98 system (copyright 1998, Gaussian, Inc.),
 the Gaussian(R) 94 system (copyright 1995, Gaussian, Inc.),
 the Gaussian 92(TM) system (copyright 1992, Gaussian, Inc.),
 the Gaussian 90(TM) system (copyright 1990, Gaussian, Inc.),
 the Gaussian 88(TM) system (copyright 1988, Gaussian, Inc.),
 the Gaussian 86(TM) system (copyright 1986, Carnegie Mellon
 University), and the Gaussian 82(TM) system (copyright 1983,
 Carnegie Mellon University). Gaussian is a federally registered
 trademark of Gaussian, Inc.
  
 This software contains proprietary and confidential information,
 including trade secrets, belonging to Gaussian, Inc.
  
 This software is provided under written license and may be
 used, copied, transmitted, or stored only in accord with that
 written license.
  
 The following legend is applicable only to US Government
 contracts under FAR:
  
                    RESTRICTED RIGHTS LEGEND
  
 Use, reproduction and disclosure by the US Government is
 subject to restrictions as set forth in subparagraphs (a)
 and (c) of the Commercial Computer Software - Restricted
 Rights clause in FAR 52.227-19.
  
 Gaussian, Inc.
 340 Quinnipiac St., Bldg. 40, Wallingford CT 06492
  
  
 ---------------------------------------------------------------
 Warning -- This program may not be used in any manner that
 competes with the business of Gaussian, Inc. or will provide
 assistance to any competitor of Gaussian, Inc.  The licensee
 of this program is prohibited from giving any competitor of
 Gaussian, Inc. access to this program.  By using this program,
 the user acknowledges that Gaussian, Inc. is engaged in the
 business of creating and licensing software in the field of
 computational chemistry and represents and warrants to the
 licensee that it is not a competitor of Gaussian, Inc. and that
 it will not use this program in any manner prohibited above.
 ---------------------------------------------------------------
  

 Cite this work as:
 Gaussian 09, Revision D.01,
 M. J. Frisch, G. W. Trucks, H. B. Schlegel, G. E. Scuseria, 
 M. A. Robb, J. R. Cheeseman, G. Scalmani, V. Barone, B. Mennucci, 
 G. A. Petersson, H. Nakatsuji, M. Caricato, X. Li, H. P. Hratchian, 
 A. F. Izmaylov, J. Bloino, G. Zheng, J. L. Sonnenberg, M. Hada, 
 M. Ehara, K. Toyota, R. Fukuda, J. Hasegawa, M. Ishida, T. Nakajima, 
 Y. Honda, O. Kitao, H. Nakai, T. Vreven, J. A. Montgomery, Jr., 
 J. E. Peralta, F. Ogliaro, M. Bearpark, J. J. Heyd, E. Brothers, 
 K. N. Kudin, V. N. Staroverov, T. Keith, R. Kobayashi, J. Normand, 
 K. Raghavachari, A. Rendell, J. C. Burant, S. S. Iyengar, J. Tomasi, 
 M. Cossi, N. Rega, J. M. Millam, M. Klene, J. E. Knox, J. B. Cross, 
 V. Bakken, C. Adamo, J. Jaramillo, R. Gomperts, R. E. Stratmann, 
 O. Yazyev, A. J. Austin, R. Cammi, C. Pomelli, J. W. Ochterski, 
 R. L. Martin, K. Morokuma, V. G. Zakrzewski, G. A. Voth, 
 P. Salvador, J. J. Dannenberg, S. Dapprich, A. D. Daniels, 
 O. Farkas, J. B. Foresman, J. V. Ortiz, J. Cioslowski, 
 and D. J. Fox, Gaussian, Inc., Wallingford CT, 2013.
 
 ******************************************
 Gaussian 09:  EM64L-G09RevD.01 24-Apr-2013
                16-May-2022 
 ******************************************
 %Mem=16GB
 %NProcShared=8
 Will use up to    8 processors via shared memory.
 ----------------------------------------------------------------------
 #P M062X/6-31+G** EmpiricalDispersion=GD3 SCRF(SMD,solvent=DiMethylSul
 foxide) Opt Freq
 ----------------------------------------------------------------------
 1/14=-1,18=20,19=15,26=3,38=1/1,3;
 2/9=110,12=2,17=6,18=5,40=1/2;
 3/5=1,6=6,7=111,11=2,16=1,25=1,30=1,70=32201,71=1,72=21,74=-55,124=31/1,2,3;
 4//1;
 5/5=2,38=5,53=21/2;
 6/7=2,8=2,9=2,10=2,28=1/1;
 7//1,2,3,16;
 1/14=-1,18=20,19=15,26=3/3(2);
 2/9=110/2;
 99//99;
 2/9=110/2;
 3/5=1,6=6,7=111,11=2,16=1,25=1,30=1,70=32205,71=1,72=21,74=-55,124=31/1,2,3;
 4/5=5,16=3,69=1/1;
 5/5=2,38=5,53=21/2;
 7//1,2,3,16;
 1/14=-1,18=20,19=15,26=3/3(-5);
 2/9=110/2;
 6/7=2,8=2,9=2,10=2,19=2,28=1/1;
 99/9=1/99;
 Leave Link    1 at Mon May 16 17:25:16 2022, MaxMem=  2147483648 cpu:         1.0
 (Enter /gpfs/runtime/opt/gaussian/g09-D01/g09/l101.exe)
 --------
 872-36-6
 --------
 Symbolic Z-matrix:
 Charge =  1 Multiplicity = 1
 O                    -1.9336    0.       -0.0008 
 C                    -0.7179    0.       -0.0011 
 O                     0.0735    1.0847    0.0009 
 C                     1.3613    0.6617    0.0002 
 C                     1.3613   -0.6617   -0.0022 
 O                     0.0735   -1.0847    0.0024 
 H                     2.2361    1.2951    0.0009 
 H                     2.2361   -1.2951   -0.0038 
 Li                    0.5863    0.       -3.0022 
 
 Add virtual bond connecting atoms Li9        and C2         Dist= 6.18D+00.
 Add virtual bond connecting atoms Li9        and O3         Dist= 6.11D+00.
 Add virtual bond connecting atoms Li9        and C4         Dist= 5.99D+00.
 Add virtual bond connecting atoms Li9        and C5         Dist= 5.99D+00.
 Add virtual bond connecting atoms Li9        and O6         Dist= 6.11D+00.
 NAtoms=      9 NQM=        9 NQMF=       0 NMMI=      0 NMMIF=      0
                NMic=       0 NMicF=      0.
                    Isotopes and Nuclear Properties:
 (Nuclear quadrupole moments (NQMom) in fm**2, nuclear magnetic moments (NMagM)
  in nuclear magnetons)

  Atom         1           2           3           4           5           6           7           8           9
 IAtWgt=          16          12          16          12          12          16           1           1           7
 AtmWgt=  15.9949146  12.0000000  15.9949146  12.0000000  12.0000000  15.9949146   1.0078250   1.0078250   7.0160045
 NucSpn=           0           0           0           0           0           0           1           1           3
 AtZEff=   0.0000000   0.0000000   0.0000000   0.0000000   0.0000000   0.0000000   0.0000000   0.0000000   0.0000000
 NQMom=    0.0000000   0.0000000   0.0000000   0.0000000   0.0000000   0.0000000   0.0000000   0.0000000  -4.0100000
 NMagM=    0.0000000   0.0000000   0.0000000   0.0000000   0.0000000   0.0000000   2.7928460   2.7928460   3.2564240
 AtZNuc=   8.0000000   6.0000000   8.0000000   6.0000000   6.0000000   8.0000000   1.0000000   1.0000000   3.0000000
 Leave Link  101 at Mon May 16 17:25:16 2022, MaxMem=  2147483648 cpu:         2.6
 (Enter /gpfs/runtime/opt/gaussian/g09-D01/g09/l103.exe)

 GradGradGradGradGradGradGradGradGradGradGradGradGradGradGradGradGradGrad
 Berny optimization.
 Initialization pass.
                           ----------------------------
                           !    Initial Parameters    !
                           ! (Angstroms and Degrees)  !
 --------------------------                            --------------------------
 ! Name  Definition              Value          Derivative Info.                !
 --------------------------------------------------------------------------------
 ! R1    R(1,2)                  1.2157         estimate D2E/DX2                !
 ! R2    R(2,3)                  1.3427         estimate D2E/DX2                !
 ! R3    R(2,6)                  1.3427         estimate D2E/DX2                !
 ! R4    R(2,9)                  3.2722         estimate D2E/DX2                !
 ! R5    R(3,4)                  1.3555         estimate D2E/DX2                !
 ! R6    R(3,9)                  3.2339         estimate D2E/DX2                !
 ! R7    R(4,5)                  1.3234         estimate D2E/DX2                !
 ! R8    R(4,7)                  1.08           estimate D2E/DX2                !
 ! R9    R(4,9)                  3.1706         estimate D2E/DX2                !
 ! R10   R(5,6)                  1.3555         estimate D2E/DX2                !
 ! R11   R(5,8)                  1.08           estimate D2E/DX2                !
 ! R12   R(5,9)                  3.1684         estimate D2E/DX2                !
 ! R13   R(6,9)                  3.2353         estimate D2E/DX2                !
 ! A1    A(1,2,3)              126.1145         estimate D2E/DX2                !
 ! A2    A(1,2,6)              126.1144         estimate D2E/DX2                !
 ! A3    A(1,2,9)              113.5027         estimate D2E/DX2                !
 ! A4    A(3,2,6)              107.7705         estimate D2E/DX2                !
 ! A5    A(2,3,4)              107.9309         estimate D2E/DX2                !
 ! A6    A(3,4,5)              108.1837         estimate D2E/DX2                !
 ! A7    A(3,4,7)              125.9098         estimate D2E/DX2                !
 ! A8    A(5,4,7)              125.9065         estimate D2E/DX2                !
 ! A9    A(7,4,9)              108.7228         estimate D2E/DX2                !
 ! A10   A(4,5,6)              108.1831         estimate D2E/DX2                !
 ! A11   A(4,5,8)              125.9065         estimate D2E/DX2                !
 ! A12   A(6,5,8)              125.91           estimate D2E/DX2                !
 ! A13   A(8,5,9)              108.6147         estimate D2E/DX2                !
 ! A14   A(2,6,5)              107.9302         estimate D2E/DX2                !
 ! A15   A(2,9,4)               39.5511         estimate D2E/DX2                !
 ! A16   A(2,9,5)               39.5639         estimate D2E/DX2                !
 ! A17   A(3,9,5)               39.6059         estimate D2E/DX2                !
 ! A18   A(3,9,6)               39.1867         estimate D2E/DX2                !
 ! A19   A(4,9,6)               39.5827         estimate D2E/DX2                !
 ! D1    D(1,2,3,4)            179.9789         estimate D2E/DX2                !
 ! D2    D(6,2,3,4)              0.2429         estimate D2E/DX2                !
 ! D3    D(1,2,6,5)            179.8738         estimate D2E/DX2                !
 ! D4    D(3,2,6,5)             -0.3902         estimate D2E/DX2                !
 ! D5    D(1,2,9,4)            160.8681         estimate D2E/DX2                !
 ! D6    D(1,2,9,5)           -160.8592         estimate D2E/DX2                !
 ! D7    D(2,3,4,5)              0.0004         estimate D2E/DX2                !
 ! D8    D(2,3,4,7)            179.968          estimate D2E/DX2                !
 ! D9    D(3,4,5,6)             -0.2418         estimate D2E/DX2                !
 ! D10   D(3,4,5,8)            179.9675         estimate D2E/DX2                !
 ! D11   D(7,4,5,6)            179.7906         estimate D2E/DX2                !
 ! D12   D(7,4,5,8)             -0.0002         estimate D2E/DX2                !
 ! D13   D(7,4,9,2)           -160.8606         estimate D2E/DX2                !
 ! D14   D(7,4,9,6)            161.3528         estimate D2E/DX2                !
 ! D15   D(4,5,6,2)              0.3931         estimate D2E/DX2                !
 ! D16   D(8,5,6,2)           -179.8161         estimate D2E/DX2                !
 ! D17   D(8,5,9,2)            160.8644         estimate D2E/DX2                !
 ! D18   D(8,5,9,3)           -161.3567         estimate D2E/DX2                !
 --------------------------------------------------------------------------------
 Trust Radius=3.00D-01 FncErr=1.00D-07 GrdErr=1.00D-06
 Number of steps in this run=     60 maximum allowed number of steps=    100.
 GradGradGradGradGradGradGradGradGradGradGradGradGradGradGradGradGradGrad

 Leave Link  103 at Mon May 16 17:25:16 2022, MaxMem=  2147483648 cpu:         0.2
 (Enter /gpfs/runtime/opt/gaussian/g09-D01/g09/l202.exe)
                          Input orientation:                          
 ---------------------------------------------------------------------
 Center     Atomic      Atomic             Coordinates (Angstroms)
 Number     Number       Type             X           Y           Z
 ---------------------------------------------------------------------
      1          8           0       -1.933600    0.000000   -0.000800
      2          6           0       -0.717900    0.000000   -0.001100
      3          8           0        0.073500    1.084700    0.000900
      4          6           0        1.361300    0.661700    0.000200
      5          6           0        1.361300   -0.661700   -0.002200
      6          8           0        0.073500   -1.084700    0.002400
      7          1           0        2.236100    1.295100    0.000900
      8          1           0        2.236100   -1.295100   -0.003800
      9          3           0        0.586300    0.000000   -3.002200
 ---------------------------------------------------------------------
                    Distance matrix (angstroms):
                    1          2          3          4          5
     1  O    0.000000
     2  C    1.215700   0.000000
     3  O    2.281453   1.342718   0.000000
     4  C    3.360687   2.181954   1.355492   0.000000
     5  C    3.360687   2.181953   2.169874   1.323402   0.000000
     6  O    2.281455   1.342721   2.169401   2.169872   1.355500
     7  H    4.366198   3.225431   2.172811   1.080033   2.143444
     8  H    4.366199   3.225431   3.215635   2.143445   1.080034
     9  Li   3.918966   3.272238   3.233906   3.170627   3.168355
                    6          7          8          9
     6  O    0.000000
     7  H    3.215632   0.000000
     8  H    2.172820   2.590204   0.000000
     9  Li   3.235299   3.663022   3.659170   0.000000
 Stoichiometry    C3H2LiO3(1+)
 Framework group  C1[X(C3H2LiO3)]
 Deg. of freedom    21
 Full point group                 C1      NOp   1
 Largest Abelian subgroup         C1      NOp   1
 Largest concise Abelian subgroup C1      NOp   1
                         Standard orientation:                         
 ---------------------------------------------------------------------
 Center     Atomic      Atomic             Coordinates (Angstroms)
 Number     Number       Type             X           Y           Z
 ---------------------------------------------------------------------
      1          8           0        2.026770   -0.000045    0.030510
      2          6           0        0.818298    0.000095   -0.101866
      3          8           0        0.031851    1.084887   -0.189152
      4          6           0       -1.248336    0.662035   -0.329416
      5          6           0       -1.248608   -0.661367   -0.328337
      6          8           0        0.031999   -1.084510   -0.192784
      7          1           0       -2.117830    1.295535   -0.424957
      8          1           0       -2.118362   -1.294668   -0.422842
      9          3           0       -0.805633   -0.002698    2.738975
 ---------------------------------------------------------------------
 Rotational constants (GHZ):      4.6780931      2.8643877      2.7858210
 Leave Link  202 at Mon May 16 17:25:17 2022, MaxMem=  2147483648 cpu:         0.4
 (Enter /gpfs/runtime/opt/gaussian/g09-D01/g09/l301.exe)
 Standard basis: 6-31+G(d,p) (6D, 7F)
 Ernie: Thresh=  0.10000D-02 Tol=  0.10000D-05 Strict=F.
 There are   143 symmetry adapted cartesian basis functions of A   symmetry.
 There are   143 symmetry adapted basis functions of A   symmetry.
   143 basis functions,   238 primitive gaussians,   143 cartesian basis functions
    23 alpha electrons       23 beta electrons
       nuclear repulsion energy       252.2578909390 Hartrees.
 IExCor= 4336 DFT=T Ex+Corr=M062X ExCW=0 ScaHFX=  0.540000
 ScaDFX=  1.000000  1.000000  1.000000  1.000000 ScalE2=  1.000000  1.000000
 IRadAn=      0 IRanWt=     -1 IRanGd=            0 ICorTp=0 IEmpDi=131
 NAtoms=    9 NActive=    9 NUniq=    9 SFac= 1.00D+00 NAtFMM=   60 NAOKFM=F Big=F
 Integral buffers will be    131072 words long.
 Raffenetti 2 integral format.
 Two-electron integral symmetry is turned on.
 R6Disp:  Grimme-D3 Dispersion energy=       -0.0000784082 Hartrees.
 Nuclear repulsion after empirical dispersion term =      252.2578125308 Hartrees.
 ------------------------------------------------------------------------------
 Polarizable Continuum Model (PCM)
 =================================
 Model                : PCM (using non-symmetric T matrix).
 Atomic radii         : SMD-Coulomb.
 Polarization charges : Total charges.
 Charge compensation  : None.
 Solution method      : On-the-fly selection.
 Cavity type          : VdW (van der Waals Surface) (Alpha=1.000).
 Cavity algorithm     : GePol (No added spheres)
                        Default sphere list used, NSphG=    9.
                        Lebedev-Laikov grids with approx.  5.0 points / Ang**2.
                        Smoothing algorithm: Karplus/York (Gamma=1.0000).
                        Polarization charges: spherical gaussians, with
                                              point-specific exponents (IZeta= 3).
                        Self-potential: point-specific (ISelfS= 7).
                        Self-field    : sphere-specific E.n sum rule (ISelfD= 2).
 1st derivatives      : Analytical E(r).r(x)/FMM algorithm (CHGder, D1EAlg=3).
                        Cavity 1st derivative terms included.
 Solvent              : DiMethylSulfoxide, Eps=  46.826000 Eps(inf)=   2.007889
 ------------------------------------------------------------------------------
 Spheres list:
 ISph  on   Nord     Re0    Alpha      Xe            Ye            Ze
    1   O      1    2.2940  1.000      2.026770     -0.000045      0.030510
    2   C      2    1.8500  1.000      0.818298      0.000095     -0.101866
    3   O      3    2.2940  1.000      0.031851      1.084887     -0.189152
    4   C      4    1.8500  1.000     -1.248336      0.662035     -0.329416
    5   C      5    1.8500  1.000     -1.248608     -0.661367     -0.328337
    6   O      6    2.2940  1.000      0.031999     -1.084510     -0.192784
    7   H      7    1.2000  1.000     -2.117830      1.295535     -0.424957
    8   H      8    1.2000  1.000     -2.118362     -1.294668     -0.422842
    9  Li      9    1.8200  1.000     -0.805633     -0.002698      2.738975
 ------------------------------------------------------------------------------
 GePol: Number of generator spheres                  =       9
 GePol: Total number of spheres                      =       9
 GePol: Number of exposed spheres                    =       9 (100.00%)
 GePol: Number of points                             =    1183
 GePol: Average weight of points                     =       0.13
 GePol: Minimum weight of points                     =   0.21D-05
 GePol: Maximum weight of points                     =    0.17992
 GePol: Number of points with low weight             =      39
 GePol: Fraction of low-weight points (<1% of avg)   =       3.30%
 GePol: Cavity surface area                          =    154.685 Ang**2
 GePol: Cavity volume                                =    144.820 Ang**3
 ------------------------------------------------------------------------------
 Atomic radii for non-electrostatic terms: SMD-CDS.
 ------------------------------------------------------------------------------
 PCM non-electrostatic energy =         0.0004286910 Hartrees.
 Nuclear repulsion after PCM non-electrostatic terms =      252.2582412218 Hartrees.
 Leave Link  301 at Mon May 16 17:25:17 2022, MaxMem=  2147483648 cpu:         0.9
 (Enter /gpfs/runtime/opt/gaussian/g09-D01/g09/l302.exe)
 NPDir=0 NMtPBC=     1 NCelOv=     1 NCel=       1 NClECP=     1 NCelD=      1
         NCelK=      1 NCelE2=     1 NClLst=     1 CellRange=     0.0.
 One-electron integrals computed using PRISM.
 NBasis=   143 RedAO= T EigKep=  6.05D-05  NBF=   143
 NBsUse=   143 1.00D-06 EigRej= -1.00D+00 NBFU=   143
 Precomputing XC quadrature grid using
 IXCGrd= 4 IRadAn=           0 IRanWt=          -1 IRanGd=           0 AccXCQ= 0.00D+00.
 Generated NRdTot=       0 NPtTot=           0 NUsed=           0 NTot=          32
 NSgBfM=   143   143   143   143   143 MxSgAt=     9 MxSgA2=     9.
 Leave Link  302 at Mon May 16 17:25:17 2022, MaxMem=  2147483648 cpu:         1.1
 (Enter /gpfs/runtime/opt/gaussian/g09-D01/g09/l303.exe)
 DipDrv:  MaxL=1.
 Leave Link  303 at Mon May 16 17:25:17 2022, MaxMem=  2147483648 cpu:         0.5
 (Enter /gpfs/runtime/opt/gaussian/g09-D01/g09/l401.exe)
 ExpMin= 7.40D-03 ExpMax= 5.48D+03 ExpMxC= 8.25D+02 IAcc=3 IRadAn=         5 AccDes= 0.00D+00
 Harris functional with IExCor= 1009 and IRadAn=       5 diagonalized for initial guess.
 HarFok:  IExCor= 1009 AccDes= 0.00D+00 IRadAn=         5 IDoV= 1 UseB2=F ITyADJ=14
 ICtDFT=  3500011 ScaDFX=  1.000000  1.000000  1.000000  1.000000
 FoFCou: FMM=F IPFlag=           0 FMFlag=      100000 FMFlg1=           0
         NFxFlg=           0 DoJE=T BraDBF=F KetDBF=T FulRan=T
         wScrn=  0.000000 ICntrl=     500 IOpCl=  0 I1Cent=   200000004 NGrid=           0
         NMat0=    1 NMatS0=      1 NMatT0=    0 NMatD0=    1 NMtDS0=    0 NMtDT0=    0
 Petite list used in FoFCou.
 Harris En= -348.212189324950    
 JPrj=0 DoOrth=F DoCkMO=F.
 Leave Link  401 at Mon May 16 17:25:17 2022, MaxMem=  2147483648 cpu:         3.2
 (Enter /gpfs/runtime/opt/gaussian/g09-D01/g09/l502.exe)
 Closed shell SCF:
 Using DIIS extrapolation, IDIIS=  1040.
 Integral symmetry usage will be decided dynamically.
 Keep R1 ints in memory in canonical form, NReq=57622585.
 IVT=       82101 IEndB=       82101 NGot=  2147483648 MDV=  2094392592
 LenX=  2094392592 LenY=  2094371702
 Requested convergence on RMS density matrix=1.00D-08 within 128 cycles.
 Requested convergence on MAX density matrix=1.00D-06.
 Requested convergence on             energy=1.00D-06.
 No special actions if energy rises.
 FoFCou: FMM=F IPFlag=           0 FMFlag=           0 FMFlg1=           0
         NFxFlg=           0 DoJE=F BraDBF=F KetDBF=F FulRan=T
         wScrn=  0.000000 ICntrl=     600 IOpCl=  0 I1Cent=           0 NGrid=           0
         NMat0=    1 NMatS0=  10296 NMatT0=    0 NMatD0=    1 NMtDS0=    0 NMtDT0=    0
 Symmetry not used in FoFCou.

 Cycle   1  Pass 1  IDiag  1:
 Inv3:  Mode=1 IEnd=     4198467.
 Iteration    1 A*A^-1 deviation from unit magnitude is 6.55D-15 for    645.
 Iteration    1 A*A^-1 deviation from orthogonality  is 3.27D-15 for    402     21.
 Iteration    1 A^-1*A deviation from unit magnitude is 5.11D-15 for     59.
 Iteration    1 A^-1*A deviation from orthogonality  is 3.74D-13 for    673    645.
 E= -348.362369990103    
 DIIS: error= 2.87D-02 at cycle   1 NSaved=   1.
 NSaved= 1 IEnMin= 1 EnMin= -348.362369990103     IErMin= 1 ErrMin= 2.87D-02
 ErrMax= 2.87D-02  0.00D+00 EMaxC= 1.00D-01 BMatC= 1.69D-01 BMatP= 1.69D-01
 IDIUse=3 WtCom= 7.13D-01 WtEn= 2.87D-01
 Coeff-Com:  0.100D+01
 Coeff-En:   0.100D+01
 Coeff:      0.100D+01
 Gap=     0.262 Goal=   None    Shift=    0.000
 GapD=    0.262 DampG=1.000 DampE=0.500 DampFc=0.5000 IDamp=-1.
 Damping current iteration by 5.00D-01
 RMSDP=6.33D-03 MaxDP=1.71D-01              OVMax= 2.04D-01

 Cycle   2  Pass 1  IDiag  1:
 E= -348.404811804387     Delta-E=       -0.042441814284 Rises=F Damp=T
 DIIS: error= 1.26D-02 at cycle   2 NSaved=   2.
 NSaved= 2 IEnMin= 2 EnMin= -348.404811804387     IErMin= 2 ErrMin= 1.26D-02
 ErrMax= 1.26D-02  0.00D+00 EMaxC= 1.00D-01 BMatC= 2.26D-02 BMatP= 1.69D-01
 IDIUse=3 WtCom= 8.74D-01 WtEn= 1.26D-01
 Coeff-Com:  0.905D-01 0.909D+00
 Coeff-En:   0.208D+00 0.792D+00
 Coeff:      0.105D+00 0.895D+00
 Gap=     0.290 Goal=   None    Shift=    0.000
 RMSDP=1.69D-03 MaxDP=2.99D-02 DE=-4.24D-02 OVMax= 1.49D-01

 Cycle   3  Pass 1  IDiag  1:
 E= -348.469724169911     Delta-E=       -0.064912365524 Rises=F Damp=F
 DIIS: error= 5.59D-03 at cycle   3 NSaved=   3.
 NSaved= 3 IEnMin= 3 EnMin= -348.469724169911     IErMin= 3 ErrMin= 5.59D-03
 ErrMax= 5.59D-03  0.00D+00 EMaxC= 1.00D-01 BMatC= 7.90D-03 BMatP= 2.26D-02
 IDIUse=3 WtCom= 9.44D-01 WtEn= 5.59D-02
 Coeff-Com: -0.687D-01 0.355D+00 0.714D+00
 Coeff-En:   0.000D+00 0.000D+00 0.100D+01
 Coeff:     -0.649D-01 0.335D+00 0.730D+00
 Gap=     0.303 Goal=   None    Shift=    0.000
 RMSDP=7.09D-04 MaxDP=2.15D-02 DE=-6.49D-02 OVMax= 3.21D-02

 Cycle   4  Pass 1  IDiag  1:
 E= -348.474927003530     Delta-E=       -0.005202833620 Rises=F Damp=F
 DIIS: error= 2.45D-03 at cycle   4 NSaved=   4.
 NSaved= 4 IEnMin= 4 EnMin= -348.474927003530     IErMin= 4 ErrMin= 2.45D-03
 ErrMax= 2.45D-03  0.00D+00 EMaxC= 1.00D-01 BMatC= 1.23D-03 BMatP= 7.90D-03
 IDIUse=3 WtCom= 9.75D-01 WtEn= 2.45D-02
 Coeff-Com: -0.346D-01 0.884D-01 0.350D+00 0.597D+00
 Coeff-En:   0.000D+00 0.000D+00 0.690D-01 0.931D+00
 Coeff:     -0.338D-01 0.862D-01 0.343D+00 0.605D+00
 Gap=     0.297 Goal=   None    Shift=    0.000
 RMSDP=2.18D-04 MaxDP=5.31D-03 DE=-5.20D-03 OVMax= 8.79D-03

 Cycle   5  Pass 1  IDiag  1:
 E= -348.475825798065     Delta-E=       -0.000898794534 Rises=F Damp=F
 DIIS: error= 4.90D-04 at cycle   5 NSaved=   5.
 NSaved= 5 IEnMin= 5 EnMin= -348.475825798065     IErMin= 5 ErrMin= 4.90D-04
 ErrMax= 4.90D-04  0.00D+00 EMaxC= 1.00D-01 BMatC= 3.70D-05 BMatP= 1.23D-03
 IDIUse=3 WtCom= 9.95D-01 WtEn= 4.90D-03
 Coeff-Com: -0.914D-02 0.157D-01 0.910D-01 0.227D+00 0.675D+00
 Coeff-En:   0.000D+00 0.000D+00 0.000D+00 0.000D+00 0.100D+01
 Coeff:     -0.910D-02 0.157D-01 0.905D-01 0.226D+00 0.677D+00
 Gap=     0.296 Goal=   None    Shift=    0.000
 RMSDP=4.10D-05 MaxDP=9.37D-04 DE=-8.99D-04 OVMax= 1.82D-03

 Cycle   6  Pass 1  IDiag  1:
 E= -348.475855364031     Delta-E=       -0.000029565967 Rises=F Damp=F
 DIIS: error= 1.05D-04 at cycle   6 NSaved=   6.
 NSaved= 6 IEnMin= 6 EnMin= -348.475855364031     IErMin= 6 ErrMin= 1.05D-04
 ErrMax= 1.05D-04  0.00D+00 EMaxC= 1.00D-01 BMatC= 2.89D-06 BMatP= 3.70D-05
 IDIUse=3 WtCom= 9.99D-01 WtEn= 1.05D-03
 Coeff-Com: -0.153D-02 0.812D-03 0.140D-01 0.432D-01 0.263D+00 0.681D+00
 Coeff-En:   0.000D+00 0.000D+00 0.000D+00 0.000D+00 0.000D+00 0.100D+01
 Coeff:     -0.153D-02 0.811D-03 0.139D-01 0.431D-01 0.263D+00 0.681D+00
 Gap=     0.296 Goal=   None    Shift=    0.000
 RMSDP=1.28D-05 MaxDP=2.49D-04 DE=-2.96D-05 OVMax= 5.31D-04

 Cycle   7  Pass 1  IDiag  1:
 E= -348.475857810124     Delta-E=       -0.000002446092 Rises=F Damp=F
 DIIS: error= 3.99D-05 at cycle   7 NSaved=   7.
 NSaved= 7 IEnMin= 7 EnMin= -348.475857810124     IErMin= 7 ErrMin= 3.99D-05
 ErrMax= 3.99D-05  0.00D+00 EMaxC= 1.00D-01 BMatC= 2.05D-07 BMatP= 2.89D-06
 IDIUse=1 WtCom= 1.00D+00 WtEn= 0.00D+00
 Coeff-Com:  0.969D-03-0.206D-02-0.851D-02-0.241D-01-0.178D-01 0.113D+00
 Coeff-Com:  0.939D+00
 Coeff:      0.969D-03-0.206D-02-0.851D-02-0.241D-01-0.178D-01 0.113D+00
 Coeff:      0.939D+00
 Gap=     0.296 Goal=   None    Shift=    0.000
 RMSDP=7.41D-06 MaxDP=1.73D-04 DE=-2.45D-06 OVMax= 2.42D-04

 Cycle   8  Pass 1  IDiag  1:
 E= -348.475858127132     Delta-E=       -0.000000317008 Rises=F Damp=F
 DIIS: error= 1.30D-05 at cycle   8 NSaved=   8.
 NSaved= 8 IEnMin= 8 EnMin= -348.475858127132     IErMin= 8 ErrMin= 1.30D-05
 ErrMax= 1.30D-05  0.00D+00 EMaxC= 1.00D-01 BMatC= 2.87D-08 BMatP= 2.05D-07
 IDIUse=1 WtCom= 1.00D+00 WtEn= 0.00D+00
 Coeff-Com:  0.450D-03-0.722D-03-0.320D-02-0.111D-01-0.241D-01-0.276D-01
 Coeff-Com:  0.282D+00 0.784D+00
 Coeff:      0.450D-03-0.722D-03-0.320D-02-0.111D-01-0.241D-01-0.276D-01
 Coeff:      0.282D+00 0.784D+00
 Gap=     0.296 Goal=   None    Shift=    0.000
 RMSDP=2.21D-06 MaxDP=4.44D-05 DE=-3.17D-07 OVMax= 1.11D-04

 Cycle   9  Pass 1  IDiag  1:
 E= -348.475858164301     Delta-E=       -0.000000037169 Rises=F Damp=F
 DIIS: error= 4.11D-06 at cycle   9 NSaved=   9.
 NSaved= 9 IEnMin= 9 EnMin= -348.475858164301     IErMin= 9 ErrMin= 4.11D-06
 ErrMax= 4.11D-06  0.00D+00 EMaxC= 1.00D-01 BMatC= 2.07D-09 BMatP= 2.87D-08
 IDIUse=1 WtCom= 1.00D+00 WtEn= 0.00D+00
 Coeff-Com: -0.660D-04 0.142D-03 0.101D-02 0.219D-02 0.215D-02-0.138D-01
 Coeff-Com: -0.106D+00 0.955D-02 0.111D+01
 Coeff:     -0.660D-04 0.142D-03 0.101D-02 0.219D-02 0.215D-02-0.138D-01
 Coeff:     -0.106D+00 0.955D-02 0.111D+01
 Gap=     0.296 Goal=   None    Shift=    0.000
 RMSDP=1.10D-06 MaxDP=2.79D-05 DE=-3.72D-08 OVMax= 4.61D-05

 Cycle  10  Pass 1  IDiag  1:
 E= -348.475858168275     Delta-E=       -0.000000003974 Rises=F Damp=F
 DIIS: error= 4.60D-07 at cycle  10 NSaved=  10.
 NSaved=10 IEnMin=10 EnMin= -348.475858168275     IErMin=10 ErrMin= 4.60D-07
 ErrMax= 4.60D-07  0.00D+00 EMaxC= 1.00D-01 BMatC= 3.42D-11 BMatP= 2.07D-09
 IDIUse=1 WtCom= 1.00D+00 WtEn= 0.00D+00
 Coeff-Com: -0.113D-04 0.182D-04 0.127D-03 0.353D-03 0.833D-03 0.995D-03
 Coeff-Com: -0.102D-01-0.291D-01-0.381D-02 0.104D+01
 Coeff:     -0.113D-04 0.182D-04 0.127D-03 0.353D-03 0.833D-03 0.995D-03
 Coeff:     -0.102D-01-0.291D-01-0.381D-02 0.104D+01
 Gap=     0.296 Goal=   None    Shift=    0.000
 RMSDP=1.36D-07 MaxDP=2.09D-06 DE=-3.97D-09 OVMax= 7.06D-06

 Cycle  11  Pass 1  IDiag  1:
 E= -348.475858168346     Delta-E=       -0.000000000071 Rises=F Damp=F
 DIIS: error= 1.13D-07 at cycle  11 NSaved=  11.
 NSaved=11 IEnMin=11 EnMin= -348.475858168346     IErMin=11 ErrMin= 1.13D-07
 ErrMax= 1.13D-07  0.00D+00 EMaxC= 1.00D-01 BMatC= 2.56D-12 BMatP= 3.42D-11
 IDIUse=1 WtCom= 1.00D+00 WtEn= 0.00D+00
 Coeff-Com:  0.248D-06-0.174D-05-0.291D-06 0.620D-05 0.128D-03 0.598D-03
 Coeff-Com:  0.944D-03-0.509D-02-0.346D-01 0.195D+00 0.843D+00
 Coeff:      0.248D-06-0.174D-05-0.291D-06 0.620D-05 0.128D-03 0.598D-03
 Coeff:      0.944D-03-0.509D-02-0.346D-01 0.195D+00 0.843D+00
 Gap=     0.296 Goal=   None    Shift=    0.000
 RMSDP=2.15D-08 MaxDP=4.51D-07 DE=-7.13D-11 OVMax= 8.42D-07

 Cycle  12  Pass 1  IDiag  1:
 E= -348.475858168342     Delta-E=        0.000000000005 Rises=F Damp=F
 DIIS: error= 7.16D-08 at cycle  12 NSaved=  12.
 NSaved=12 IEnMin=11 EnMin= -348.475858168346     IErMin=12 ErrMin= 7.16D-08
 ErrMax= 7.16D-08  0.00D+00 EMaxC= 1.00D-01 BMatC= 1.42D-12 BMatP= 2.56D-12
 IDIUse=1 WtCom= 1.00D+00 WtEn= 0.00D+00
 Coeff-Com:  0.207D-05-0.421D-05-0.198D-04-0.528D-04-0.528D-04 0.191D-03
 Coeff-Com:  0.216D-02 0.189D-02-0.202D-01-0.565D-01 0.503D+00 0.570D+00
 Coeff:      0.207D-05-0.421D-05-0.198D-04-0.528D-04-0.528D-04 0.191D-03
 Coeff:      0.216D-02 0.189D-02-0.202D-01-0.565D-01 0.503D+00 0.570D+00
 Gap=     0.296 Goal=   None    Shift=    0.000
 RMSDP=8.91D-09 MaxDP=2.05D-07 DE= 4.55D-12 OVMax= 3.52D-07

 Error on total polarization charges =  0.00809
 SCF Done:  E(RM062X) =  -348.475858168     A.U. after   12 cycles
            NFock= 12  Conv=0.89D-08     -V/T= 2.0081
 KE= 3.456620259961D+02 PE=-1.312451805497D+03 EE= 3.660556801108D+02
 SMD-CDS (non-electrostatic) energy       (kcal/mol) =       0.27
 (included in total energy above)
 Leave Link  502 at Mon May 16 17:25:24 2022, MaxMem=  2147483648 cpu:        46.5
 (Enter /gpfs/runtime/opt/gaussian/g09-D01/g09/l601.exe)
 Copying SCF densities to generalized density rwf, IOpCl= 0 IROHF=0.

 **********************************************************************

            Population analysis using the SCF density.

 **********************************************************************

 Orbital symmetries:
       Occupied  (A) (A) (A) (A) (A) (A) (A) (A) (A) (A) (A) (A)
                 (A) (A) (A) (A) (A) (A) (A) (A) (A) (A) (A)
       Virtual   (A) (A) (A) (A) (A) (A) (A) (A) (A) (A) (A) (A)
                 (A) (A) (A) (A) (A) (A) (A) (A) (A) (A) (A) (A)
                 (A) (A) (A) (A) (A) (A) (A) (A) (A) (A) (A) (A)
                 (A) (A) (A) (A) (A) (A) (A) (A) (A) (A) (A) (A)
                 (A) (A) (A) (A) (A) (A) (A) (A) (A) (A) (A) (A)
                 (A) (A) (A) (A) (A) (A) (A) (A) (A) (A) (A) (A)
                 (A) (A) (A) (A) (A) (A) (A) (A) (A) (A) (A) (A)
                 (A) (A) (A) (A) (A) (A) (A) (A) (A) (A) (A) (A)
                 (A) (A) (A) (A) (A) (A) (A) (A) (A) (A) (A) (A)
                 (A) (A) (A) (A) (A) (A) (A) (A) (A) (A) (A) (A)
 The electronic state is 1-A.
 Alpha  occ. eigenvalues --  -19.75676 -19.75673 -19.66505 -10.76621 -10.63450
 Alpha  occ. eigenvalues --  -10.63330  -2.23904  -1.36066  -1.23298  -1.18951
 Alpha  occ. eigenvalues --   -0.90814  -0.78473  -0.75861  -0.65555  -0.64328
 Alpha  occ. eigenvalues --   -0.57550  -0.55490  -0.51177  -0.50575  -0.49800
 Alpha  occ. eigenvalues --   -0.46225  -0.40685  -0.32210
 Alpha virt. eigenvalues --   -0.02636   0.00139   0.00271   0.00340   0.01355
 Alpha virt. eigenvalues --    0.02807   0.03943   0.04462   0.04750   0.05142
 Alpha virt. eigenvalues --    0.05787   0.06742   0.07028   0.07137   0.07152
 Alpha virt. eigenvalues --    0.08504   0.10893   0.11622   0.13323   0.13648
 Alpha virt. eigenvalues --    0.15590   0.15928   0.17132   0.19340   0.20444
 Alpha virt. eigenvalues --    0.21890   0.22282   0.23187   0.23678   0.25235
 Alpha virt. eigenvalues --    0.25882   0.29109   0.29416   0.29809   0.29989
 Alpha virt. eigenvalues --    0.30695   0.31258   0.32179   0.36974   0.37255
 Alpha virt. eigenvalues --    0.38668   0.39318   0.41408   0.47733   0.51447
 Alpha virt. eigenvalues --    0.51847   0.52270   0.54451   0.56218   0.58609
 Alpha virt. eigenvalues --    0.62067   0.69277   0.76701   0.77507   0.81639
 Alpha virt. eigenvalues --    0.84632   0.89495   0.90615   0.92888   0.94255
 Alpha virt. eigenvalues --    1.00394   1.05078   1.15164   1.17600   1.20692
 Alpha virt. eigenvalues --    1.21655   1.25986   1.30316   1.32635   1.34503
 Alpha virt. eigenvalues --    1.35286   1.35567   1.35992   1.36493   1.38598
 Alpha virt. eigenvalues --    1.42267   1.45686   1.48338   1.48483   1.58376
 Alpha virt. eigenvalues --    1.62855   1.69002   1.80994   1.82015   1.84110
 Alpha virt. eigenvalues --    1.90120   1.91475   1.96048   1.97409   2.04046
 Alpha virt. eigenvalues --    2.07862   2.12903   2.14318   2.22598   2.23772
 Alpha virt. eigenvalues --    2.32372   2.35663   2.43714   2.52765   2.56710
 Alpha virt. eigenvalues --    2.63235   2.69268   2.72046   2.74123   2.77488
 Alpha virt. eigenvalues --    2.81738   2.92305   2.98020   3.05184   3.09621
 Alpha virt. eigenvalues --    3.21555   3.25214   3.39831   3.71324   4.25391
 Alpha virt. eigenvalues --    4.30541   4.58712   4.63326   4.67599   4.67712
          Condensed to atoms (all electrons):
               1          2          3          4          5          6
     1  O    8.261632   0.450579  -0.107411   0.018514   0.018559  -0.107489
     2  C    0.450579   4.650263   0.258779  -0.136105  -0.137820   0.259458
     3  O   -0.107411   0.258779   8.294994   0.165105  -0.083435  -0.179340
     4  C    0.018514  -0.136105   0.165105   5.132127   0.538337  -0.083724
     5  C    0.018559  -0.137820  -0.083435   0.538337   5.132060   0.165474
     6  O   -0.107489   0.259458  -0.179340  -0.083724   0.165474   8.294601
     7  H    0.000101   0.009313  -0.028434   0.366350  -0.015251   0.002802
     8  H    0.000104   0.009229   0.002806  -0.015134   0.366235  -0.028383
     9  Li  -0.002674  -0.023974   0.002386   0.010849   0.010933   0.002225
               7          8          9
     1  O    0.000101   0.000104  -0.002674
     2  C    0.009313   0.009229  -0.023974
     3  O   -0.028434   0.002806   0.002386
     4  C    0.366350  -0.015134   0.010849
     5  C   -0.015251   0.366235   0.010933
     6  O    0.002802  -0.028383   0.002225
     7  H    0.393622   0.000165   0.001732
     8  H    0.000165   0.393633   0.001770
     9  Li   0.001732   0.001770   2.021806
 Mulliken charges:
               1
     1  O   -0.531915
     2  C    0.660279
     3  O   -0.325450
     4  C    0.003681
     5  C    0.004908
     6  O   -0.325624
     7  H    0.269600
     8  H    0.269575
     9  Li   0.974947
 Sum of Mulliken charges =   1.00000
 Mulliken charges with hydrogens summed into heavy atoms:
               1
     1  O   -0.531915
     2  C    0.660279
     3  O   -0.325450
     4  C    0.273280
     5  C    0.274483
     6  O   -0.325624
     9  Li   0.974947
 Electronic spatial extent (au):  <R**2>=            469.6552
 Charge=              1.0000 electrons
 Dipole moment (field-independent basis, Debye):
    X=            -10.2883    Y=             -0.0110    Z=             11.8789  Tot=             15.7149
 Quadrupole moment (field-independent basis, Debye-Ang):
   XX=            -30.5466   YY=            -33.1654   ZZ=              2.4899
   XY=              0.0091   XZ=             -8.9676   YZ=             -0.0469
 Traceless Quadrupole moment (field-independent basis, Debye-Ang):
   XX=            -10.1392   YY=            -12.7580   ZZ=             22.8973
   XY=              0.0091   XZ=             -8.9676   YZ=             -0.0469
 Octapole moment (field-independent basis, Debye-Ang**2):
  XXX=            -39.4221  YYY=             -0.0098  ZZZ=            113.9717  XYY=             -9.3981
  XXY=             -0.0105  XXZ=              8.4491  XZZ=            -27.5583  YZZ=             -0.0956
  YYZ=              3.7126  XYZ=              0.0361
 Hexadecapole moment (field-independent basis, Debye-Ang**3):
 XXXX=           -319.0769 YYYY=           -143.8058 ZZZZ=            208.1340 XXXY=              0.0195
 XXXZ=            -10.4196 YYYX=              0.0014 YYYZ=             -0.0524 ZZZX=            -93.6899
 ZZZY=             -0.3057 XXYY=            -61.8203 XXZZ=            -42.6022 YYZZ=            -34.3202
 XXYZ=             -0.0528 YYXZ=             -0.4311 ZZXY=              0.0751
 N-N= 2.522582412218D+02 E-N=-1.312451805948D+03  KE= 3.456620259961D+02
 No NMR shielding tensors so no spin-rotation constants.
 Leave Link  601 at Mon May 16 17:25:25 2022, MaxMem=  2147483648 cpu:         1.3
 (Enter /gpfs/runtime/opt/gaussian/g09-D01/g09/l701.exe)
 Compute integral first derivatives.
 ... and contract with generalized density number  0.
 R6Disp: Adding Grimme-D3 dispersion energy 1st derivatives to the gradient.
 D1PCM: PCM CHGder 1st derivatives, ID1Alg=3 FixD1E=F DoIter=F DoCFld=F I1PDM=0.
 GePol: Maximum number of non-zero 1st derivatives   =     314
 Leave Link  701 at Mon May 16 17:25:25 2022, MaxMem=  2147483648 cpu:         3.5
 (Enter /gpfs/runtime/opt/gaussian/g09-D01/g09/l702.exe)
 L702 exits ... SP integral derivatives will be done elsewhere.
 Leave Link  702 at Mon May 16 17:25:25 2022, MaxMem=  2147483648 cpu:         0.2
 (Enter /gpfs/runtime/opt/gaussian/g09-D01/g09/l703.exe)
 Compute integral first derivatives, UseDBF=F ICtDFT=           0.
 Integral derivatives from FoFJK, PRISM(SPDF).
 Calling FoFJK, ICntrl=      2127 FMM=F ISym2X=0 I1Cent= 0 IOpClX= 0 NMat=1 NMatS=1 NMatT=0.
 FoFJK:  IHMeth= 1 ICntrl=    2127 DoSepK=F KAlg= 0 I1Cent=   0 FoldK=F
 IRaf=         0 NMat=   1 IRICut=       1 DoRegI=T DoRafI=F ISym2E= 0.
 FoFCou: FMM=F IPFlag=           0 FMFlag=      100000 FMFlg1=         800
         NFxFlg=           0 DoJE=F BraDBF=F KetDBF=F FulRan=T
         wScrn=  0.000000 ICntrl=    2127 IOpCl=  0 I1Cent=           0 NGrid=           0
         NMat0=    1 NMatS0=      1 NMatT0=    0 NMatD0=    1 NMtDS0=    0 NMtDT0=    0
 Symmetry not used in FoFCou.
 Leave Link  703 at Mon May 16 17:25:26 2022, MaxMem=  2147483648 cpu:         7.3
 (Enter /gpfs/runtime/opt/gaussian/g09-D01/g09/l716.exe)
 Dipole        =-4.04774108D+00-4.30858672D-03 4.67352725D+00
 ***** Axes restored to original set *****
 -------------------------------------------------------------------
 Center     Atomic                   Forces (Hartrees/Bohr)
 Number     Number              X              Y              Z
 -------------------------------------------------------------------
      1        8           0.029626470   -0.000001550    0.000345428
      2        6          -0.036455798   -0.000007881    0.006301074
      3        8          -0.015964614    0.022207457    0.000563763
      4        6           0.025995035   -0.008116926   -0.002011744
      5        6           0.025996759    0.008107680   -0.001324911
      6        8          -0.015954064   -0.022211297    0.000004959
      7        1          -0.008650709    0.010850724    0.000277619
      8        1          -0.008649474   -0.010848925    0.000385434
      9        3           0.004056394    0.000020719   -0.004541622
 -------------------------------------------------------------------
 Cartesian Forces:  Max     0.036455798 RMS     0.014471165
 Leave Link  716 at Mon May 16 17:25:26 2022, MaxMem=  2147483648 cpu:         0.3
 (Enter /gpfs/runtime/opt/gaussian/g09-D01/g09/l103.exe)

 GradGradGradGradGradGradGradGradGradGradGradGradGradGradGradGradGradGrad
 Berny optimization.
 FormGI is forming the generalized inverse of G from B-inverse, IUseBI=4.
 Internal  Forces:  Max     0.029645985 RMS     0.007079453
 Search for a local minimum.
 Step number   1 out of a maximum of   60
 All quantities printed in internal units (Hartrees-Bohrs-Radians)
 RMS Force = .70795D-02 SwitMx=.10000D-02 MixMth= 1
 Mixed Optimization -- RFO/linear search
 Second derivative matrix not updated -- first step.
 ITU=  0
     Eigenvalues ---    0.01679   0.01710   0.01784   0.02260   0.02474
     Eigenvalues ---    0.05031   0.06331   0.07463   0.07626   0.08890
     Eigenvalues ---    0.11010   0.21508   0.22557   0.35990   0.35990
     Eigenvalues ---    0.46160   0.46872   0.51865   0.52844   0.56632
     Eigenvalues ---    0.97314
 RFO step:  Lambda=-9.24711675D-03 EMin= 1.67895890D-02
 Linear search not attempted -- first point.
 Iteration  1 RMS(Cart)=  0.04556538 RMS(Int)=  0.00155967
 Iteration  2 RMS(Cart)=  0.00127162 RMS(Int)=  0.00055849
 Iteration  3 RMS(Cart)=  0.00000090 RMS(Int)=  0.00055849
 ITry= 1 IFail=0 DXMaxC= 1.68D-01 DCOld= 1.00D+10 DXMaxT= 3.00D-01 DXLimC= 3.00D+00 Rises=F
 Variable       Old X    -DE/DX   Delta X   Delta X   Delta X     New X
                                 (Linear)    (Quad)   (Total)
    R1        2.29734  -0.02965   0.00000  -0.03018  -0.03018   2.26716
    R2        2.53737   0.01014   0.00000   0.01552   0.01561   2.55298
    R3        2.53738   0.01013   0.00000   0.01552   0.01561   2.55299
    R4        6.18363   0.00458   0.00000   0.17762   0.17720   6.36083
    R5        2.56151   0.01724   0.00000   0.03766   0.03790   2.59941
    R6        6.11120   0.00351   0.00000   0.07580   0.07639   6.18758
    R7        2.50087   0.01438   0.00000   0.02515   0.02494   2.52580
    R8        2.04097  -0.00063   0.00000  -0.00170  -0.00170   2.03927
    R9        5.99162  -0.00210   0.00000  -0.04792  -0.04838   5.94324
   R10        2.56152   0.01724   0.00000   0.03766   0.03787   2.59939
   R11        2.04097  -0.00063   0.00000  -0.00170  -0.00170   2.03926
   R12        5.98732  -0.00194   0.00000  -0.04264  -0.04307   5.94425
   R13        6.11383   0.00341   0.00000   0.07172   0.07224   6.18607
    A1        2.20111  -0.00343   0.00000  -0.00851  -0.00912   2.19200
    A2        2.20111  -0.00344   0.00000  -0.00849  -0.00914   2.19197
    A3        1.98099   0.00223   0.00000   0.01613   0.01549   1.99648
    A4        1.88095   0.00688   0.00000   0.01730   0.01634   1.89729
    A5        1.88375  -0.00374   0.00000  -0.00902  -0.00856   1.87519
    A6        1.88816   0.00029   0.00000   0.00045   0.00017   1.88833
    A7        2.19754  -0.00704   0.00000  -0.07816  -0.07851   2.11903
    A8        2.19748   0.00674   0.00000   0.07773   0.07804   2.27552
    A9        1.89757   0.00071   0.00000  -0.01410  -0.01335   1.88423
   A10        1.88815   0.00033   0.00000   0.00051   0.00027   1.88842
   A11        2.19748   0.00673   0.00000   0.07765   0.07801   2.27550
   A12        2.19754  -0.00706   0.00000  -0.07823  -0.07851   2.11903
   A13        1.89568   0.00075   0.00000  -0.01324  -0.01230   1.88338
   A14        1.88374  -0.00375   0.00000  -0.00900  -0.00861   1.87512
   A15        0.69030   0.00270   0.00000  -0.00413  -0.00483   0.68547
   A16        0.69052   0.00268   0.00000  -0.00444  -0.00511   0.68541
   A17        0.69125   0.00446   0.00000   0.00654   0.00619   0.69744
   A18        0.68394   0.00423   0.00000   0.00026  -0.00003   0.68391
   A19        0.69085   0.00448   0.00000   0.00711   0.00677   0.69762
    D1        3.14123   0.00050   0.00000   0.03814   0.03783  -3.10413
    D2        0.00424  -0.00154   0.00000  -0.02978  -0.03070  -0.02646
    D3        3.13939  -0.00038   0.00000  -0.03467  -0.03442   3.10497
    D4       -0.00681   0.00166   0.00000   0.03324   0.03411   0.02730
    D5        2.80768  -0.00099   0.00000  -0.00800  -0.00842   2.79926
    D6       -2.80752   0.00098   0.00000   0.00783   0.00820  -2.79932
    D7        0.00001   0.00084   0.00000   0.01497   0.01535   0.01536
    D8        3.14103   0.00051   0.00000   0.04152   0.03973  -3.10242
    D9       -0.00422   0.00019   0.00000   0.00566   0.00561   0.00139
   D10        3.14102  -0.00036   0.00000   0.02493   0.02549  -3.11667
   D11        3.13794   0.00053   0.00000  -0.02082  -0.02163   3.11631
   D12        0.00000  -0.00003   0.00000  -0.00155  -0.00174  -0.00175
   D13       -2.80755   0.00651   0.00000   0.07413   0.07373  -2.73381
   D14        2.81614   0.00720   0.00000   0.08583   0.08554   2.90167
   D15        0.00686  -0.00117   0.00000  -0.02420  -0.02448  -0.01762
   D16       -3.13838  -0.00058   0.00000  -0.04306  -0.04184   3.10297
   D17        2.80761  -0.00652   0.00000  -0.07423  -0.07387   2.73374
   D18       -2.81621  -0.00720   0.00000  -0.08580  -0.08550  -2.90170
         Item               Value     Threshold  Converged?
 Maximum Force            0.029646     0.000450     NO 
 RMS     Force            0.007079     0.000300     NO 
 Maximum Displacement     0.168140     0.001800     NO 
 RMS     Displacement     0.045581     0.001200     NO 
 Predicted change in Energy=-5.129531D-03
 Lowest energy point so far.  Saving SCF results.
 GradGradGradGradGradGradGradGradGradGradGradGradGradGradGradGradGradGrad

 Leave Link  103 at Mon May 16 17:25:26 2022, MaxMem=  2147483648 cpu:         0.1
 (Enter /gpfs/runtime/opt/gaussian/g09-D01/g09/l202.exe)
                          Input orientation:                          
 ---------------------------------------------------------------------
 Center     Atomic      Atomic             Coordinates (Angstroms)
 Number     Number       Type             X           Y           Z
 ---------------------------------------------------------------------
      1          8           0       -1.923119   -0.000136    0.041284
      2          6           0       -0.723393   -0.000145    0.044688
      3          8           0        0.063013    1.097709    0.006863
      4          6           0        1.369441    0.668192   -0.022945
      5          6           0        1.369410   -0.668405   -0.022866
      6          8           0        0.062968   -1.097974    0.005176
      7          1           0        2.191525    1.367264   -0.019828
      8          1           0        2.191480   -1.367492   -0.021104
      9          3           0        0.675276    0.000987   -3.016968
 ---------------------------------------------------------------------
                    Distance matrix (angstroms):
                    1          2          3          4          5
     1  O    0.000000
     2  C    1.199731   0.000000
     3  O    2.269618   1.350980   0.000000
     4  C    3.360318   2.198000   1.375546   0.000000
     5  C    3.360275   2.197945   2.196979   1.336597   0.000000
     6  O    2.269603   1.350982   2.195683   2.197044   1.375538
     7  H    4.336337   3.220360   2.145679   1.079135   2.195411
     8  H    4.336299   3.220319   3.257050   2.195396   1.079132
     9  Li   4.013049   3.366009   3.274327   3.145028   3.145561
                    6          7          8          9
     6  O    0.000000
     7  H    3.257111   0.000000
     8  H    2.145669   2.734756   0.000000
     9  Li   3.273528   3.626096   3.625853   0.000000
 Stoichiometry    C3H2LiO3(1+)
 Framework group  C1[X(C3H2LiO3)]
 Deg. of freedom    21
 Full point group                 C1      NOp   1
 RotChk:  IX=0 Diff= 7.11D-02
 Largest Abelian subgroup         C1      NOp   1
 Largest concise Abelian subgroup C1      NOp   1
                         Standard orientation:                         
 ---------------------------------------------------------------------
 Center     Atomic      Atomic             Coordinates (Angstroms)
 Number     Number       Type             X           Y           Z
 ---------------------------------------------------------------------
      1          8           0        2.021196   -0.000161    0.096764
      2          6           0        0.837270    0.000143   -0.097328
      3          8           0        0.054794    1.098123   -0.182882
      4          6           0       -1.239735    0.668885   -0.361979
      5          6           0       -1.239622   -0.667710   -0.364637
      6          8           0        0.054685   -1.097558   -0.185457
      7          1           0       -2.050905    1.368171   -0.494398
      8          1           0       -2.050921   -1.366582   -0.498421
      9          3           0       -1.030351   -0.004240    2.703027
 ---------------------------------------------------------------------
 Rotational constants (GHZ):      4.6442082      2.8083448      2.7663456
 Leave Link  202 at Mon May 16 17:25:26 2022, MaxMem=  2147483648 cpu:         0.2
 (Enter /gpfs/runtime/opt/gaussian/g09-D01/g09/l301.exe)
 Standard basis: 6-31+G(d,p) (6D, 7F)
 Ernie: Thresh=  0.10000D-02 Tol=  0.10000D-05 Strict=F.
 There are   143 symmetry adapted cartesian basis functions of A   symmetry.
 There are   143 symmetry adapted basis functions of A   symmetry.
   143 basis functions,   238 primitive gaussians,   143 cartesian basis functions
    23 alpha electrons       23 beta electrons
       nuclear repulsion energy       250.9291834513 Hartrees.
 IExCor= 4336 DFT=T Ex+Corr=M062X ExCW=0 ScaHFX=  0.540000
 ScaDFX=  1.000000  1.000000  1.000000  1.000000 ScalE2=  1.000000  1.000000
 IRadAn=      0 IRanWt=     -1 IRanGd=            0 ICorTp=0 IEmpDi=131
 NAtoms=    9 NActive=    9 NUniq=    9 SFac= 1.00D+00 NAtFMM=   60 NAOKFM=F Big=F
 Integral buffers will be    131072 words long.
 Raffenetti 2 integral format.
 Two-electron integral symmetry is turned on.
 R6Disp:  Grimme-D3 Dispersion energy=       -0.0000842751 Hartrees.
 Nuclear repulsion after empirical dispersion term =      250.9290991763 Hartrees.
 ------------------------------------------------------------------------------
 Polarizable Continuum Model (PCM)
 =================================
 Model                : PCM (using non-symmetric T matrix).
 Atomic radii         : SMD-Coulomb.
 Polarization charges : Total charges.
 Charge compensation  : None.
 Solution method      : On-the-fly selection.
 Cavity type          : VdW (van der Waals Surface) (Alpha=1.000).
 Cavity algorithm     : GePol (No added spheres)
                        Default sphere list used, NSphG=    9.
                        Lebedev-Laikov grids with approx.  5.0 points / Ang**2.
                        Smoothing algorithm: Karplus/York (Gamma=1.0000).
                        Polarization charges: spherical gaussians, with
                                              point-specific exponents (IZeta= 3).
                        Self-potential: point-specific (ISelfS= 7).
                        Self-field    : sphere-specific E.n sum rule (ISelfD= 2).
 1st derivatives      : Analytical E(r).r(x)/FMM algorithm (CHGder, D1EAlg=3).
                        Cavity 1st derivative terms included.
 Solvent              : DiMethylSulfoxide, Eps=  46.826000 Eps(inf)=   2.007889
 ------------------------------------------------------------------------------
 Spheres list:
 ISph  on   Nord     Re0    Alpha      Xe            Ye            Ze
    1   O      1    2.2940  1.000      2.021196     -0.000161      0.096764
    2   C      2    1.8500  1.000      0.837270      0.000143     -0.097328
    3   O      3    2.2940  1.000      0.054794      1.098123     -0.182882
    4   C      4    1.8500  1.000     -1.239735      0.668885     -0.361979
    5   C      5    1.8500  1.000     -1.239622     -0.667710     -0.364637
    6   O      6    2.2940  1.000      0.054685     -1.097558     -0.185457
    7   H      7    1.2000  1.000     -2.050905      1.368171     -0.494398
    8   H      8    1.2000  1.000     -2.050921     -1.366582     -0.498421
    9  Li      9    1.8200  1.000     -1.030351     -0.004240      2.703027
 ------------------------------------------------------------------------------
 GePol: Number of generator spheres                  =       9
 GePol: Total number of spheres                      =       9
 GePol: Number of exposed spheres                    =       9 (100.00%)
 GePol: Number of points                             =    1187
 GePol: Average weight of points                     =       0.13
 GePol: Minimum weight of points                     =   0.11D-07
 GePol: Maximum weight of points                     =    0.17992
 GePol: Number of points with low weight             =      33
 GePol: Fraction of low-weight points (<1% of avg)   =       2.78%
 GePol: Cavity surface area                          =    154.857 Ang**2
 GePol: Cavity volume                                =    144.952 Ang**3
 ------------------------------------------------------------------------------
 Atomic radii for non-electrostatic terms: SMD-CDS.
 ------------------------------------------------------------------------------
 PCM non-electrostatic energy =         0.0005526460 Hartrees.
 Nuclear repulsion after PCM non-electrostatic terms =      250.9296518223 Hartrees.
 Leave Link  301 at Mon May 16 17:25:26 2022, MaxMem=  2147483648 cpu:         0.4
 (Enter /gpfs/runtime/opt/gaussian/g09-D01/g09/l302.exe)
 NPDir=0 NMtPBC=     1 NCelOv=     1 NCel=       1 NClECP=     1 NCelD=      1
         NCelK=      1 NCelE2=     1 NClLst=     1 CellRange=     0.0.
 One-electron integrals computed using PRISM.
 NBasis=   143 RedAO= T EigKep=  6.33D-05  NBF=   143
 NBsUse=   143 1.00D-06 EigRej= -1.00D+00 NBFU=   143
 Precomputing XC quadrature grid using
 IXCGrd= 4 IRadAn=           0 IRanWt=          -1 IRanGd=           0 AccXCQ= 0.00D+00.
 Generated NRdTot=       0 NPtTot=           0 NUsed=           0 NTot=          32
 NSgBfM=   143   143   143   143   143 MxSgAt=     9 MxSgA2=     9.
 Leave Link  302 at Mon May 16 17:25:27 2022, MaxMem=  2147483648 cpu:         0.9
 (Enter /gpfs/runtime/opt/gaussian/g09-D01/g09/l303.exe)
 DipDrv:  MaxL=1.
 Leave Link  303 at Mon May 16 17:25:27 2022, MaxMem=  2147483648 cpu:         0.6
 (Enter /gpfs/runtime/opt/gaussian/g09-D01/g09/l401.exe)
 Initial guess from the checkpoint file:  "/gpfs/data/yqi27/cgu13/CHEM1560Q/Gaussian/872-36-6/inp6/Gau-246365.chk"
 B after Tr=     0.000000    0.000000    0.000000
         Rot=    0.999757   -0.000265    0.022040    0.000027 Ang=  -2.53 deg.
 Guess basis will be translated and rotated to current coordinates.
 JPrj=2 DoOrth=T DoCkMO=T.
 Generating alternative initial guess.
 ExpMin= 7.40D-03 ExpMax= 5.48D+03 ExpMxC= 8.25D+02 IAcc=3 IRadAn=         5 AccDes= 0.00D+00
 Harris functional with IExCor= 1009 and IRadAn=       5 diagonalized for initial guess.
 HarFok:  IExCor= 1009 AccDes= 0.00D+00 IRadAn=         5 IDoV= 1 UseB2=F ITyADJ=14
 ICtDFT=  3500011 ScaDFX=  1.000000  1.000000  1.000000  1.000000
 FoFCou: FMM=F IPFlag=           0 FMFlag=      100000 FMFlg1=           0
         NFxFlg=           0 DoJE=T BraDBF=F KetDBF=T FulRan=T
         wScrn=  0.000000 ICntrl=     500 IOpCl=  0 I1Cent=   200000004 NGrid=           0
         NMat0=    1 NMatS0=      1 NMatT0=    0 NMatD0=    1 NMtDS0=    0 NMtDT0=    0
 Petite list used in FoFCou.
 Harris En= -348.214647131788    
 Leave Link  401 at Mon May 16 17:25:27 2022, MaxMem=  2147483648 cpu:         5.2
 (Enter /gpfs/runtime/opt/gaussian/g09-D01/g09/l502.exe)
 Closed shell SCF:
 Using DIIS extrapolation, IDIIS=  1040.
 Integral symmetry usage will be decided dynamically.
 Keep R1 ints in memory in canonical form, NReq=57632475.
 IVT=       82101 IEndB=       82101 NGot=  2147483648 MDV=  2094392592
 LenX=  2094392592 LenY=  2094371702
 Requested convergence on RMS density matrix=1.00D-08 within 128 cycles.
 Requested convergence on MAX density matrix=1.00D-06.
 Requested convergence on             energy=1.00D-06.
 No special actions if energy rises.
 FoFCou: FMM=F IPFlag=           0 FMFlag=           0 FMFlg1=           0
         NFxFlg=           0 DoJE=F BraDBF=F KetDBF=F FulRan=T
         wScrn=  0.000000 ICntrl=     600 IOpCl=  0 I1Cent=           0 NGrid=           0
         NMat0=    1 NMatS0=  10296 NMatT0=    0 NMatD0=    1 NMtDS0=    0 NMtDT0=    0
 Symmetry not used in FoFCou.

 Cycle   1  Pass 1  IDiag  1:
 Inv3:  Mode=1 IEnd=     4226907.
 Iteration    1 A*A^-1 deviation from unit magnitude is 6.66D-15 for   1014.
 Iteration    1 A*A^-1 deviation from orthogonality  is 4.98D-15 for    538    119.
 Iteration    1 A^-1*A deviation from unit magnitude is 5.55D-15 for    541.
 Iteration    1 A^-1*A deviation from orthogonality  is 2.54D-15 for    669    648.
 E= -348.479709085203    
 DIIS: error= 2.53D-03 at cycle   1 NSaved=   1.
 NSaved= 1 IEnMin= 1 EnMin= -348.479709085203     IErMin= 1 ErrMin= 2.53D-03
 ErrMax= 2.53D-03  0.00D+00 EMaxC= 1.00D-01 BMatC= 1.38D-03 BMatP= 1.38D-03
 IDIUse=3 WtCom= 9.75D-01 WtEn= 2.53D-02
 Coeff-Com:  0.100D+01
 Coeff-En:   0.100D+01
 Coeff:      0.100D+01
 Gap=     0.528 Goal=   None    Shift=    0.000
 GapD=    0.528 DampG=2.000 DampE=1.000 DampFc=2.0000 IDamp=-1.
 RMSDP=7.05D-04 MaxDP=1.56D-02              OVMax= 1.18D-02

 Cycle   2  Pass 1  IDiag  1:
 E= -348.481763592787     Delta-E=       -0.002054507583 Rises=F Damp=F
 DIIS: error= 5.75D-04 at cycle   2 NSaved=   2.
 NSaved= 2 IEnMin= 2 EnMin= -348.481763592787     IErMin= 2 ErrMin= 5.75D-04
 ErrMax= 5.75D-04  0.00D+00 EMaxC= 1.00D-01 BMatC= 8.95D-05 BMatP= 1.38D-03
 IDIUse=3 WtCom= 9.94D-01 WtEn= 5.75D-03
 Coeff-Com: -0.843D-02 0.101D+01
 Coeff-En:   0.000D+00 0.100D+01
 Coeff:     -0.838D-02 0.101D+01
 Gap=     0.299 Goal=   None    Shift=    0.000
 RMSDP=1.51D-04 MaxDP=3.24D-03 DE=-2.05D-03 OVMax= 7.32D-03

 Cycle   3  Pass 1  IDiag  1:
 E= -348.481823836325     Delta-E=       -0.000060243539 Rises=F Damp=F
 DIIS: error= 6.65D-04 at cycle   3 NSaved=   3.
 NSaved= 3 IEnMin= 3 EnMin= -348.481823836325     IErMin= 2 ErrMin= 5.75D-04
 ErrMax= 6.65D-04  0.00D+00 EMaxC= 1.00D-01 BMatC= 9.94D-05 BMatP= 8.95D-05
 IDIUse=3 WtCom= 2.79D-01 WtEn= 7.21D-01
 Coeff-Com: -0.741D-01 0.552D+00 0.522D+00
 Coeff-En:   0.000D+00 0.202D+00 0.798D+00
 Coeff:     -0.207D-01 0.300D+00 0.721D+00
 Gap=     0.298 Goal=   None    Shift=    0.000
 RMSDP=1.01D-04 MaxDP=3.03D-03 DE=-6.02D-05 OVMax= 3.83D-03

 Cycle   4  Pass 1  IDiag  1:
 E= -348.481858716881     Delta-E=       -0.000034880555 Rises=F Damp=F
 DIIS: error= 4.62D-04 at cycle   4 NSaved=   4.
 NSaved= 4 IEnMin= 4 EnMin= -348.481858716881     IErMin= 4 ErrMin= 4.62D-04
 ErrMax= 4.62D-04  0.00D+00 EMaxC= 1.00D-01 BMatC= 5.58D-05 BMatP= 8.95D-05
 IDIUse=3 WtCom= 9.95D-01 WtEn= 4.62D-03
 Coeff-Com: -0.250D-01 0.454D-01 0.447D+00 0.533D+00
 Coeff-En:   0.000D+00 0.000D+00 0.363D+00 0.637D+00
 Coeff:     -0.249D-01 0.452D-01 0.446D+00 0.534D+00
 Gap=     0.298 Goal=   None    Shift=    0.000
 RMSDP=4.31D-05 MaxDP=1.61D-03 DE=-3.49D-05 OVMax= 2.00D-03

 Cycle   5  Pass 1  IDiag  1:
 E= -348.481900168613     Delta-E=       -0.000041451732 Rises=F Damp=F
 DIIS: error= 4.91D-05 at cycle   5 NSaved=   5.
 NSaved= 5 IEnMin= 5 EnMin= -348.481900168613     IErMin= 5 ErrMin= 4.91D-05
 ErrMax= 4.91D-05  0.00D+00 EMaxC= 1.00D-01 BMatC= 4.32D-07 BMatP= 5.58D-05
 IDIUse=1 WtCom= 1.00D+00 WtEn= 0.00D+00
 Coeff-Com: -0.515D-03-0.416D-01 0.927D-01 0.185D+00 0.764D+00
 Coeff:     -0.515D-03-0.416D-01 0.927D-01 0.185D+00 0.764D+00
 Gap=     0.298 Goal=   None    Shift=    0.000
 RMSDP=6.76D-06 MaxDP=1.17D-04 DE=-4.15D-05 OVMax= 3.62D-04

 Cycle   6  Pass 1  IDiag  1:
 E= -348.481900643796     Delta-E=       -0.000000475183 Rises=F Damp=F
 DIIS: error= 1.51D-05 at cycle   6 NSaved=   6.
 NSaved= 6 IEnMin= 6 EnMin= -348.481900643796     IErMin= 6 ErrMin= 1.51D-05
 ErrMax= 1.51D-05  0.00D+00 EMaxC= 1.00D-01 BMatC= 4.09D-08 BMatP= 4.32D-07
 IDIUse=1 WtCom= 1.00D+00 WtEn= 0.00D+00
 Coeff-Com:  0.231D-02-0.176D-01-0.220D-01 0.613D-02 0.227D+00 0.804D+00
 Coeff:      0.231D-02-0.176D-01-0.220D-01 0.613D-02 0.227D+00 0.804D+00
 Gap=     0.298 Goal=   None    Shift=    0.000
 RMSDP=2.35D-06 MaxDP=3.80D-05 DE=-4.75D-07 OVMax= 1.08D-04

 Cycle   7  Pass 1  IDiag  1:
 E= -348.481900693272     Delta-E=       -0.000000049476 Rises=F Damp=F
 DIIS: error= 5.71D-06 at cycle   7 NSaved=   7.
 NSaved= 7 IEnMin= 7 EnMin= -348.481900693272     IErMin= 7 ErrMin= 5.71D-06
 ErrMax= 5.71D-06  0.00D+00 EMaxC= 1.00D-01 BMatC= 4.79D-09 BMatP= 4.09D-08
 IDIUse=1 WtCom= 1.00D+00 WtEn= 0.00D+00
 Coeff-Com:  0.776D-03-0.234D-02-0.148D-01-0.932D-02 0.148D-01 0.254D+00
 Coeff-Com:  0.757D+00
 Coeff:      0.776D-03-0.234D-02-0.148D-01-0.932D-02 0.148D-01 0.254D+00
 Coeff:      0.757D+00
 Gap=     0.298 Goal=   None    Shift=    0.000
 RMSDP=8.39D-07 MaxDP=1.38D-05 DE=-4.95D-08 OVMax= 4.04D-05

 Cycle   8  Pass 1  IDiag  1:
 E= -348.481900698898     Delta-E=       -0.000000005626 Rises=F Damp=F
 DIIS: error= 1.87D-06 at cycle   8 NSaved=   8.
 NSaved= 8 IEnMin= 8 EnMin= -348.481900698898     IErMin= 8 ErrMin= 1.87D-06
 ErrMax= 1.87D-06  0.00D+00 EMaxC= 1.00D-01 BMatC= 7.73D-10 BMatP= 4.79D-09
 IDIUse=1 WtCom= 1.00D+00 WtEn= 0.00D+00
 Coeff-Com: -0.650D-04 0.192D-02-0.242D-02-0.372D-02-0.294D-01-0.449D-01
 Coeff-Com:  0.264D+00 0.815D+00
 Coeff:     -0.650D-04 0.192D-02-0.242D-02-0.372D-02-0.294D-01-0.449D-01
 Coeff:      0.264D+00 0.815D+00
 Gap=     0.298 Goal=   None    Shift=    0.000
 RMSDP=3.45D-07 MaxDP=6.03D-06 DE=-5.63D-09 OVMax= 1.81D-05

 Cycle   9  Pass 1  IDiag  1:
 E= -348.481900699780     Delta-E=       -0.000000000882 Rises=F Damp=F
 DIIS: error= 5.26D-07 at cycle   9 NSaved=   9.
 NSaved= 9 IEnMin= 9 EnMin= -348.481900699780     IErMin= 9 ErrMin= 5.26D-07
 ErrMax= 5.26D-07  0.00D+00 EMaxC= 1.00D-01 BMatC= 6.48D-11 BMatP= 7.73D-10
 IDIUse=1 WtCom= 1.00D+00 WtEn= 0.00D+00
 Coeff-Com: -0.114D-03 0.100D-02 0.759D-03-0.177D-03-0.132D-01-0.477D-01
 Coeff-Com:  0.184D-01 0.295D+00 0.746D+00
 Coeff:     -0.114D-03 0.100D-02 0.759D-03-0.177D-03-0.132D-01-0.477D-01
 Coeff:      0.184D-01 0.295D+00 0.746D+00
 Gap=     0.298 Goal=   None    Shift=    0.000
 RMSDP=1.16D-07 MaxDP=2.65D-06 DE=-8.82D-10 OVMax= 4.22D-06

 Cycle  10  Pass 1  IDiag  1:
 E= -348.481900699864     Delta-E=       -0.000000000084 Rises=F Damp=F
 DIIS: error= 8.70D-08 at cycle  10 NSaved=  10.
 NSaved=10 IEnMin=10 EnMin= -348.481900699864     IErMin=10 ErrMin= 8.70D-08
 ErrMax= 8.70D-08  0.00D+00 EMaxC= 1.00D-01 BMatC= 2.36D-12 BMatP= 6.48D-11
 IDIUse=1 WtCom= 1.00D+00 WtEn= 0.00D+00
 Coeff-Com: -0.393D-05-0.590D-04 0.242D-03 0.309D-03 0.102D-02-0.539D-03
 Coeff-Com: -0.196D-01-0.408D-01 0.993D-01 0.960D+00
 Coeff:     -0.393D-05-0.590D-04 0.242D-03 0.309D-03 0.102D-02-0.539D-03
 Coeff:     -0.196D-01-0.408D-01 0.993D-01 0.960D+00
 Gap=     0.298 Goal=   None    Shift=    0.000
 RMSDP=2.88D-08 MaxDP=6.03D-07 DE=-8.41D-11 OVMax= 1.26D-06

 Cycle  11  Pass 1  IDiag  1:
 E= -348.481900699872     Delta-E=       -0.000000000007 Rises=F Damp=F
 DIIS: error= 3.87D-08 at cycle  11 NSaved=  11.
 NSaved=11 IEnMin=11 EnMin= -348.481900699872     IErMin=11 ErrMin= 3.87D-08
 ErrMax= 3.87D-08  0.00D+00 EMaxC= 1.00D-01 BMatC= 5.04D-13 BMatP= 2.36D-12
 IDIUse=1 WtCom= 1.00D+00 WtEn= 0.00D+00
 Coeff-Com:  0.305D-05-0.712D-04 0.803D-04 0.162D-03 0.105D-02 0.180D-02
 Coeff-Com: -0.100D-01-0.313D-01 0.145D-01 0.441D+00 0.582D+00
 Coeff:      0.305D-05-0.712D-04 0.803D-04 0.162D-03 0.105D-02 0.180D-02
 Coeff:     -0.100D-01-0.313D-01 0.145D-01 0.441D+00 0.582D+00
 Gap=     0.298 Goal=   None    Shift=    0.000
 RMSDP=6.37D-09 MaxDP=1.36D-07 DE=-7.39D-12 OVMax= 2.75D-07

 Error on total polarization charges =  0.00784
 SCF Done:  E(RM062X) =  -348.481900700     A.U. after   11 cycles
            NFock= 11  Conv=0.64D-08     -V/T= 2.0084
 KE= 3.455629696797D+02 PE=-1.309844023514D+03 EE= 3.648695013124D+02
 SMD-CDS (non-electrostatic) energy       (kcal/mol) =       0.35
 (included in total energy above)
 Leave Link  502 at Mon May 16 17:25:34 2022, MaxMem=  2147483648 cpu:        41.8
 (Enter /gpfs/runtime/opt/gaussian/g09-D01/g09/l701.exe)
 Compute integral first derivatives.
 ... and contract with generalized density number  0.
 R6Disp: Adding Grimme-D3 dispersion energy 1st derivatives to the gradient.
 D1PCM: PCM CHGder 1st derivatives, ID1Alg=3 FixD1E=F DoIter=F DoCFld=F I1PDM=0.
 GePol: Maximum number of non-zero 1st derivatives   =     318
 Leave Link  701 at Mon May 16 17:25:34 2022, MaxMem=  2147483648 cpu:         3.8
 (Enter /gpfs/runtime/opt/gaussian/g09-D01/g09/l702.exe)
 L702 exits ... SP integral derivatives will be done elsewhere.
 Leave Link  702 at Mon May 16 17:25:34 2022, MaxMem=  2147483648 cpu:         0.1
 (Enter /gpfs/runtime/opt/gaussian/g09-D01/g09/l703.exe)
 Compute integral first derivatives, UseDBF=F ICtDFT=           0.
 Integral derivatives from FoFJK, PRISM(SPDF).
 Calling FoFJK, ICntrl=      2127 FMM=F ISym2X=0 I1Cent= 0 IOpClX= 0 NMat=1 NMatS=1 NMatT=0.
 FoFJK:  IHMeth= 1 ICntrl=    2127 DoSepK=F KAlg= 0 I1Cent=   0 FoldK=F
 IRaf=         0 NMat=   1 IRICut=       1 DoRegI=T DoRafI=F ISym2E= 0.
 FoFCou: FMM=F IPFlag=           0 FMFlag=      100000 FMFlg1=         800
         NFxFlg=           0 DoJE=F BraDBF=F KetDBF=F FulRan=T
         wScrn=  0.000000 ICntrl=    2127 IOpCl=  0 I1Cent=           0 NGrid=           0
         NMat0=    1 NMatS0=      1 NMatT0=    0 NMatD0=    1 NMtDS0=    0 NMtDT0=    0
 Symmetry not used in FoFCou.
 Leave Link  703 at Mon May 16 17:25:35 2022, MaxMem=  2147483648 cpu:         7.3
 (Enter /gpfs/runtime/opt/gaussian/g09-D01/g09/l716.exe)
 Dipole        =-4.37563714D+00-7.09959280D-03 4.48877582D+00
 ***** Axes restored to original set *****
 -------------------------------------------------------------------
 Center     Atomic                   Forces (Hartrees/Bohr)
 Number     Number              X              Y              Z
 -------------------------------------------------------------------
      1        8           0.005634379    0.000014523    0.003522744
      2        6          -0.012821993    0.000021867   -0.004974912
      3        8          -0.002696167    0.005077021    0.003576195
      4        6           0.009256638   -0.012607877   -0.001031496
      5        6           0.009301989    0.012587657   -0.001324625
      6        8          -0.002681864   -0.005094166    0.003708031
      7        1          -0.004082386    0.004245274   -0.000165342
      8        1          -0.004082186   -0.004248822   -0.000145762
      9        3           0.002171590    0.000004522   -0.003164833
 -------------------------------------------------------------------
 Cartesian Forces:  Max     0.012821993 RMS     0.005782032
 Leave Link  716 at Mon May 16 17:25:35 2022, MaxMem=  2147483648 cpu:         0.2
 (Enter /gpfs/runtime/opt/gaussian/g09-D01/g09/l103.exe)

 GradGradGradGradGradGradGradGradGradGradGradGradGradGradGradGradGradGrad
 Berny optimization.
 Using GEDIIS/GDIIS optimizer.
 FormGI is forming the generalized inverse of G from B-inverse, IUseBI=4.
 Internal  Forces:  Max     0.005618143 RMS     0.002124088
 Search for a local minimum.
 Step number   2 out of a maximum of   60
 All quantities printed in internal units (Hartrees-Bohrs-Radians)
 RMS Force = .21241D-02 SwitMx=.10000D-02 MixMth= 1
 Mixed Optimization -- RFO/linear search
 Update second derivatives using D2CorX and points    1    2
 DE= -6.04D-03 DEPred=-5.13D-03 R= 1.18D+00
 TightC=F SS=  1.41D+00  RLast= 3.36D-01 DXNew= 5.0454D-01 1.0086D+00
 Trust test= 1.18D+00 RLast= 3.36D-01 DXMaxT set to 5.05D-01
 ITU=  1  0
 Use linear search instead of GDIIS.
     Eigenvalues ---    0.01640   0.01748   0.01804   0.02397   0.02487
     Eigenvalues ---    0.05036   0.05347   0.06370   0.07662   0.08951
     Eigenvalues ---    0.10902   0.21587   0.23257   0.35981   0.35990
     Eigenvalues ---    0.46253   0.47378   0.48681   0.52883   0.59557
     Eigenvalues ---    0.96234
 RFO step:  Lambda=-1.90231411D-03 EMin= 1.64016639D-02
 Quartic linear search produced a step of  0.46881.
 Iteration  1 RMS(Cart)=  0.03621670 RMS(Int)=  0.00137316
 Iteration  2 RMS(Cart)=  0.00098648 RMS(Int)=  0.00085078
 Iteration  3 RMS(Cart)=  0.00000091 RMS(Int)=  0.00085077
 ITry= 1 IFail=0 DXMaxC= 1.35D-01 DCOld= 1.00D+10 DXMaxT= 5.05D-01 DXLimC= 3.00D+00 Rises=F
 Variable       Old X    -DE/DX   Delta X   Delta X   Delta X     New X
                                 (Linear)    (Quad)   (Total)
    R1        2.26716  -0.00562  -0.01415  -0.00019  -0.01434   2.25283
    R2        2.55298   0.00300   0.00732   0.00294   0.01015   2.56313
    R3        2.55299   0.00304   0.00732   0.00307   0.01026   2.56325
    R4        6.36083   0.00244   0.08307   0.03178   0.11518   6.47601
    R5        2.59941   0.00487   0.01777   0.00643   0.02452   2.62393
    R6        6.18758   0.00178   0.03581   0.08375   0.11965   6.30723
    R7        2.52580  -0.00380   0.01169  -0.01716  -0.00555   2.52025
    R8        2.03927  -0.00038  -0.00080  -0.00105  -0.00184   2.03743
    R9        5.94324  -0.00098  -0.02268   0.00685  -0.01618   5.92706
   R10        2.59939   0.00488   0.01775   0.00650   0.02456   2.62395
   R11        2.03926  -0.00037  -0.00080  -0.00104  -0.00183   2.03743
   R12        5.94425  -0.00102  -0.02019   0.00237  -0.01815   5.92610
   R13        6.18607   0.00180   0.03387   0.08754   0.12147   6.30754
    A1        2.19200   0.00077  -0.00427   0.00960   0.00444   2.19643
    A2        2.19197   0.00079  -0.00429   0.00975   0.00455   2.19651
    A3        1.99648   0.00285   0.00726   0.03740   0.04398   2.04046
    A4        1.89729  -0.00136   0.00766  -0.01317  -0.00706   1.89022
    A5        1.87519  -0.00004  -0.00401   0.00814   0.00401   1.87919
    A6        1.88833   0.00076   0.00008  -0.00023  -0.00067   1.88766
    A7        2.11903  -0.00295  -0.03681  -0.02915  -0.06650   2.05253
    A8        2.27552   0.00219   0.03659   0.02882   0.06579   2.34131
    A9        1.88423  -0.00011  -0.00626  -0.00562  -0.01061   1.87362
   A10        1.88842   0.00072   0.00013  -0.00041  -0.00084   1.88759
   A11        2.27550   0.00221   0.03657   0.02883   0.06577   2.34127
   A12        2.11903  -0.00294  -0.03681  -0.02906  -0.06641   2.05262
   A13        1.88338  -0.00010  -0.00577  -0.00594  -0.01042   1.87296
   A14        1.87512  -0.00003  -0.00404   0.00827   0.00406   1.87919
   A15        0.68547   0.00095  -0.00226   0.00084  -0.00214   0.68333
   A16        0.68541   0.00097  -0.00240   0.00109  -0.00203   0.68338
   A17        0.69744   0.00029   0.00290  -0.00747  -0.00509   0.69235
   A18        0.68391   0.00029  -0.00001  -0.01238  -0.01258   0.67133
   A19        0.69762   0.00028   0.00317  -0.00800  -0.00535   0.69227
    D1       -3.10413  -0.00191   0.01774  -0.02084  -0.00338  -3.10751
    D2       -0.02646   0.00138  -0.01439   0.08139   0.06580   0.03934
    D3        3.10497   0.00188  -0.01614   0.01791   0.00205   3.10702
    D4        0.02730  -0.00141   0.01599  -0.08431  -0.06714  -0.03983
    D5        2.79926   0.00089  -0.00395   0.00320  -0.00114   2.79812
    D6       -2.79932  -0.00090   0.00384  -0.00304   0.00118  -2.79814
    D7        0.01536  -0.00080   0.00720  -0.04675  -0.03909  -0.02373
    D8       -3.10242  -0.00048   0.01862  -0.02522  -0.00945  -3.11187
    D9        0.00139  -0.00005   0.00263  -0.00483  -0.00220  -0.00081
   D10       -3.11667   0.00048   0.01195   0.02760   0.04090  -3.07577
   D11        3.11631  -0.00050  -0.01014  -0.03008  -0.04156   3.07475
   D12       -0.00175   0.00003  -0.00082   0.00236   0.00153  -0.00021
   D13       -2.73381   0.00332   0.03457   0.03368   0.06785  -2.66596
   D14        2.90167   0.00322   0.04010   0.03499   0.07438   2.97605
   D15       -0.01762   0.00088  -0.01148   0.05458   0.04268   0.02506
   D16        3.10297   0.00048  -0.01961   0.02652   0.00974   3.11271
   D17        2.73374  -0.00330  -0.03463  -0.03340  -0.06766   2.66608
   D18       -2.90170  -0.00322  -0.04008  -0.03496  -0.07432  -2.97602
         Item               Value     Threshold  Converged?
 Maximum Force            0.005618     0.000450     NO 
 RMS     Force            0.002124     0.000300     NO 
 Maximum Displacement     0.135042     0.001800     NO 
 RMS     Displacement     0.036284     0.001200     NO 
 Predicted change in Energy=-1.625416D-03
 Lowest energy point so far.  Saving SCF results.
 GradGradGradGradGradGradGradGradGradGradGradGradGradGradGradGradGradGrad

 Leave Link  103 at Mon May 16 17:25:35 2022, MaxMem=  2147483648 cpu:         0.3
 (Enter /gpfs/runtime/opt/gaussian/g09-D01/g09/l202.exe)
                          Input orientation:                          
 ---------------------------------------------------------------------
 Center     Atomic      Atomic             Coordinates (Angstroms)
 Number     Number       Type             X           Y           Z
 ---------------------------------------------------------------------
      1          8           0       -1.924253   -0.000063    0.077550
      2          6           0       -0.732434   -0.000105    0.049698
      3          8           0        0.061770    1.099307    0.034767
      4          6           0        1.378923    0.666720   -0.042540
      5          6           0        1.378933   -0.666939   -0.043487
      6          8           0        0.061808   -1.099559    0.034278
      7          1           0        2.152528    1.417668   -0.036096
      8          1           0        2.152587   -1.417848   -0.038274
      9          3           0        0.746737    0.000820   -3.041596
 ---------------------------------------------------------------------
                    Distance matrix (angstroms):
                    1          2          3          4          5
     1  O    0.000000
     2  C    1.192144   0.000000
     3  O    2.270403   1.356351   0.000000
     4  C    3.371941   2.216075   1.388524   0.000000
     5  C    3.372004   2.216128   2.204692   1.333659   0.000000
     6  O    2.270507   1.356414   2.198866   2.204639   1.388534
     7  H    4.317756   3.215656   2.116045   1.078161   2.223531
     8  H    4.317887   3.215755   3.273059   2.223510   1.078161
     9  Li   4.106490   3.426959   3.337644   3.136466   3.135958
                    6          7          8          9
     6  O    0.000000
     7  H    3.272995   0.000000
     8  H    2.116111   2.835517   0.000000
     9  Li   3.337809   3.607872   3.606796   0.000000
 Stoichiometry    C3H2LiO3(1+)
 Framework group  C1[X(C3H2LiO3)]
 Deg. of freedom    21
 Full point group                 C1      NOp   1
 RotChk:  IX=0 Diff= 5.36D-02
 Largest Abelian subgroup         C1      NOp   1
 Largest concise Abelian subgroup C1      NOp   1
                         Standard orientation:                         
 ---------------------------------------------------------------------
 Center     Atomic      Atomic             Coordinates (Angstroms)
 Number     Number       Type             X           Y           Z
 ---------------------------------------------------------------------
      1          8           0        2.026024   -0.000138    0.147595
      2          6           0        0.851924   -0.000008   -0.059035
      3          8           0        0.070239    1.099520   -0.199369
      4          6           0       -1.236464    0.667086   -0.382469
      5          6           0       -1.236660   -0.666573   -0.382659
      6          8           0        0.070107   -1.099345   -0.200737
      7          1           0       -1.993756    1.418165   -0.540010
      8          1           0       -1.994239   -1.417351   -0.540258
      9          3           0       -1.205257   -0.001378    2.681777
 ---------------------------------------------------------------------
 Rotational constants (GHZ):      4.6343663      2.7593184      2.7255692
 Leave Link  202 at Mon May 16 17:25:35 2022, MaxMem=  2147483648 cpu:         0.4
 (Enter /gpfs/runtime/opt/gaussian/g09-D01/g09/l301.exe)
 Standard basis: 6-31+G(d,p) (6D, 7F)
 Ernie: Thresh=  0.10000D-02 Tol=  0.10000D-05 Strict=F.
 There are   143 symmetry adapted cartesian basis functions of A   symmetry.
 There are   143 symmetry adapted basis functions of A   symmetry.
   143 basis functions,   238 primitive gaussians,   143 cartesian basis functions
    23 alpha electrons       23 beta electrons
       nuclear repulsion energy       250.0593275652 Hartrees.
 IExCor= 4336 DFT=T Ex+Corr=M062X ExCW=0 ScaHFX=  0.540000
 ScaDFX=  1.000000  1.000000  1.000000  1.000000 ScalE2=  1.000000  1.000000
 IRadAn=      0 IRanWt=     -1 IRanGd=            0 ICorTp=0 IEmpDi=131
 NAtoms=    9 NActive=    9 NUniq=    9 SFac= 1.00D+00 NAtFMM=   60 NAOKFM=F Big=F
 Integral buffers will be    131072 words long.
 Raffenetti 2 integral format.
 Two-electron integral symmetry is turned on.
 R6Disp:  Grimme-D3 Dispersion energy=       -0.0000905450 Hartrees.
 Nuclear repulsion after empirical dispersion term =      250.0592370202 Hartrees.
 ------------------------------------------------------------------------------
 Polarizable Continuum Model (PCM)
 =================================
 Model                : PCM (using non-symmetric T matrix).
 Atomic radii         : SMD-Coulomb.
 Polarization charges : Total charges.
 Charge compensation  : None.
 Solution method      : On-the-fly selection.
 Cavity type          : VdW (van der Waals Surface) (Alpha=1.000).
 Cavity algorithm     : GePol (No added spheres)
                        Default sphere list used, NSphG=    9.
                        Lebedev-Laikov grids with approx.  5.0 points / Ang**2.
                        Smoothing algorithm: Karplus/York (Gamma=1.0000).
                        Polarization charges: spherical gaussians, with
                                              point-specific exponents (IZeta= 3).
                        Self-potential: point-specific (ISelfS= 7).
                        Self-field    : sphere-specific E.n sum rule (ISelfD= 2).
 1st derivatives      : Analytical E(r).r(x)/FMM algorithm (CHGder, D1EAlg=3).
                        Cavity 1st derivative terms included.
 Solvent              : DiMethylSulfoxide, Eps=  46.826000 Eps(inf)=   2.007889
 ------------------------------------------------------------------------------
 Spheres list:
 ISph  on   Nord     Re0    Alpha      Xe            Ye            Ze
    1   O      1    2.2940  1.000      2.026024     -0.000138      0.147595
    2   C      2    1.8500  1.000      0.851924     -0.000008     -0.059035
    3   O      3    2.2940  1.000      0.070239      1.099520     -0.199369
    4   C      4    1.8500  1.000     -1.236464      0.667086     -0.382469
    5   C      5    1.8500  1.000     -1.236660     -0.666573     -0.382659
    6   O      6    2.2940  1.000      0.070107     -1.099345     -0.200737
    7   H      7    1.2000  1.000     -1.993756      1.418165     -0.540010
    8   H      8    1.2000  1.000     -1.994239     -1.417351     -0.540258
    9  Li      9    1.8200  1.000     -1.205257     -0.001378      2.681777
 ------------------------------------------------------------------------------
 GePol: Number of generator spheres                  =       9
 GePol: Total number of spheres                      =       9
[...]
     24 -0.534796D-04 -0.947028D-05 -0.128430D-03  0.100219D-01 -0.589133D-04
     25  0.126786D-02 -0.192379D-02  0.195464D-02  0.221796D-02 -0.312154D-02
     26  0.000000D+00  0.314579D-02 -0.217878D-02 -0.147731D-02 -0.885934D-03
     27 -0.200766D-02 -0.139823D-02 -0.234729D-02 -0.149786D-02  0.481492D-02
               11            12            13            14            15 
     11  0.935497D+00
     12 -0.307780D-01  0.141441D+00
     13 -0.196980D-01 -0.433212D-02  0.621894D+00
     14 -0.543534D+00 -0.102894D-01 -0.166012D+00  0.935511D+00
     15  0.989716D-02 -0.538391D-01 -0.120320D+00  0.314225D-01  0.141526D+00
     16 -0.502091D-01  0.275094D-01 -0.226217D+00 -0.790738D-01  0.420446D-01
     17 -0.533009D-01  0.299099D-02 -0.437199D-01 -0.126683D+00  0.124921D-01
     18  0.136865D-01  0.944380D-02  0.470565D-01  0.209666D-01 -0.623267D-01
     19 -0.152049D+00  0.387741D-01  0.830311D-02  0.179255D-02 -0.114369D-02
     20 -0.218186D+00  0.319717D-01 -0.174592D-01 -0.176959D-02  0.383550D-02
     21  0.273780D-01 -0.357725D-01 -0.709366D-04  0.817050D-03  0.937457D-03
     22 -0.179311D-02 -0.114589D-02 -0.206496D+00  0.152020D+00  0.388890D-01
     23 -0.176843D-02 -0.383787D-02  0.164131D+00 -0.218183D+00 -0.321236D-01
     24 -0.816234D-03  0.936349D-03  0.346174D-01 -0.275334D-01 -0.358312D-01
     25  0.116212D-02  0.147510D-03 -0.311762D-02 -0.114505D-02  0.142107D-03
     26 -0.455609D-03  0.126139D-02  0.905689D-03 -0.455989D-03 -0.125968D-02
     27 -0.365291D-02 -0.334991D-02  0.481704D-02  0.365670D-02 -0.338118D-02
               16            17            18            19            20 
     16  0.475475D+00
     17  0.640583D-02  0.459291D+00
     18 -0.105946D+00 -0.394786D-02  0.936190D-01
     19  0.521334D-02  0.225974D-02  0.578516D-03  0.216477D+00
     20 -0.365728D-03 -0.307570D-02 -0.849923D-05  0.163094D+00  0.210498D+00
     21 -0.108489D-04  0.118793D-03  0.100231D-01 -0.410088D-01 -0.307106D-01
     22 -0.193538D-01  0.197646D-01  0.387827D-02 -0.342579D-03  0.337445D-03
     23 -0.146259D-01  0.157208D-01  0.286045D-02 -0.336908D-03 -0.165614D-03
     24  0.563974D-02 -0.582947D-02 -0.267213D-02 -0.549254D-03  0.312226D-04
     25 -0.192013D-02 -0.194286D-02  0.221504D-02 -0.651903D-04 -0.237107D-03
     26 -0.313958D-02 -0.217813D-02  0.148417D-02 -0.728946D-03 -0.587018D-03
     27 -0.139938D-02  0.235200D-02 -0.149401D-02 -0.159700D-02 -0.113096D-02
               21            22            23            24            25 
     21  0.306436D-01
     22 -0.549110D-03  0.216446D+00
     23 -0.291682D-04 -0.163070D+00  0.210491D+00
     24 -0.247009D-02 -0.411352D-01  0.308624D-01  0.307053D-01
     25 -0.757531D-04 -0.636614D-04  0.235015D-03 -0.736986D-04  0.109925D-01
     26 -0.979609D-03  0.728212D-03 -0.584919D-03  0.978874D-03 -0.258248D-04
     27 -0.134621D-02 -0.159579D-02  0.112995D-02 -0.134757D-02 -0.547039D-02
               26            27 
     26  0.741955D-02
     27 -0.719038D-05  0.135353D-01
 FormGI is forming the generalized inverse of G from B-inverse, IUseBI=4.
 Leave Link  716 at Mon May 16 17:28:32 2022, MaxMem=  2147483648 cpu:         0.2
 (Enter /gpfs/runtime/opt/gaussian/g09-D01/g09/l103.exe)

 GradGradGradGradGradGradGradGradGradGradGradGradGradGradGradGradGradGrad
 Berny optimization.
 Red2BG is reusing G-inverse.
 Internal  Forces:  Max     0.000040554 RMS     0.000015603
 Search for a local minimum.
 Step number   1 out of a maximum of    2
 All quantities printed in internal units (Hartrees-Bohrs-Radians)
 Second derivative matrix not updated -- analytic derivatives used.
 ITU=  0
     Eigenvalues ---    0.00354   0.00620   0.01306   0.01432   0.01736
     Eigenvalues ---    0.02098   0.04137   0.04977   0.05309   0.06302
     Eigenvalues ---    0.07253   0.20525   0.23640   0.27829   0.33252
     Eigenvalues ---    0.36242   0.38408   0.38417   0.38812   0.54036
     Eigenvalues ---    0.94664
 Angle between quadratic step and forces=  55.05 degrees.
 Linear search not attempted -- first point.
 Iteration  1 RMS(Cart)=  0.00047766 RMS(Int)=  0.00000022
 Iteration  2 RMS(Cart)=  0.00000020 RMS(Int)=  0.00000010
 ITry= 1 IFail=0 DXMaxC= 1.73D-03 DCOld= 1.00D+10 DXMaxT= 3.00D-01 DXLimC= 3.00D+00 Rises=F
 Variable       Old X    -DE/DX   Delta X   Delta X   Delta X     New X
                                 (Linear)    (Quad)   (Total)
    R1        2.25915  -0.00004   0.00000  -0.00005  -0.00005   2.25910
    R2        2.55837   0.00003   0.00000   0.00009   0.00009   2.55847
    R3        2.55842   0.00002   0.00000   0.00004   0.00004   2.55846
    R4        7.81350   0.00000   0.00000   0.00102   0.00102   7.81452
    R5        2.60980  -0.00001   0.00000  -0.00001  -0.00001   2.60978
    R6        7.01090   0.00001   0.00000   0.00090   0.00090   7.01180
    R7        2.52054  -0.00001   0.00000  -0.00004  -0.00004   2.52050
    R8        2.04099   0.00000   0.00000   0.00000   0.00000   2.04099
    R9        5.41957   0.00001   0.00000   0.00075   0.00075   5.42032
   R10        2.60971   0.00000   0.00000   0.00009   0.00009   2.60980
   R11        2.04099   0.00000   0.00000   0.00000   0.00000   2.04099
   R12        5.41998   0.00000   0.00000  -0.00030  -0.00030   5.41968
   R13        7.01140   0.00000   0.00000  -0.00043  -0.00043   7.01097
    A1        2.19560  -0.00001   0.00000  -0.00006  -0.00006   2.19554
    A2        2.19555  -0.00001   0.00000   0.00000   0.00000   2.19555
    A3        2.47502   0.00001   0.00000   0.00080   0.00080   2.47582
    A4        1.89202   0.00002   0.00000   0.00006   0.00005   1.89207
    A5        1.87805  -0.00003   0.00000  -0.00007  -0.00007   1.87799
    A6        1.88830   0.00002   0.00000   0.00007   0.00007   1.88837
    A7        2.06133  -0.00003   0.00000  -0.00028  -0.00028   2.06105
    A8        2.33227   0.00001   0.00000   0.00018   0.00018   2.33245
    A9        1.47416   0.00002   0.00000   0.00088   0.00088   1.47504
   A10        1.88835   0.00001   0.00000   0.00002   0.00002   1.88836
   A11        2.33224   0.00002   0.00000   0.00021   0.00021   2.33245
   A12        2.06131  -0.00003   0.00000  -0.00027  -0.00026   2.06104
   A13        1.47435   0.00001   0.00000   0.00041   0.00041   1.47476
   A14        1.87805  -0.00003   0.00000  -0.00007  -0.00007   1.87798
   A15        0.53105  -0.00001   0.00000  -0.00011  -0.00011   0.53094
   A16        0.53107  -0.00001   0.00000  -0.00017  -0.00017   0.53090
   A17        0.63336   0.00000   0.00000  -0.00010  -0.00010   0.63327
   A18        0.60094   0.00001   0.00000   0.00001   0.00001   0.60095
   A19        0.63330   0.00000   0.00000   0.00007   0.00007   0.63337
    D1       -3.13303  -0.00002   0.00000  -0.00095  -0.00095  -3.13398
    D2        0.00340  -0.00001   0.00000  -0.00090  -0.00090   0.00251
    D3        3.13302   0.00002   0.00000   0.00097   0.00097   3.13399
    D4       -0.00341   0.00002   0.00000   0.00092   0.00092  -0.00250
    D5        2.66459  -0.00001   0.00000  -0.00009  -0.00009   2.66450
    D6       -2.66454   0.00000   0.00000   0.00010   0.00010  -2.66444
    D7       -0.00209   0.00001   0.00000   0.00053   0.00053  -0.00156
    D8       -3.09651   0.00002   0.00000   0.00117   0.00117  -3.09534
    D9       -0.00001   0.00000   0.00000   0.00003   0.00003   0.00002
   D10       -3.08416   0.00002   0.00000   0.00097   0.00097  -3.08319
   D11        3.08409  -0.00002   0.00000  -0.00076  -0.00076   3.08333
   D12       -0.00006   0.00000   0.00000   0.00018   0.00018   0.00012
   D13       -2.73381   0.00000   0.00000  -0.00027  -0.00027  -2.73408
   D14        2.97163   0.00000   0.00000  -0.00004  -0.00004   2.97158
   D15        0.00211  -0.00001   0.00000  -0.00059  -0.00059   0.00152
   D16        3.09657  -0.00002   0.00000  -0.00134  -0.00134   3.09523
   D17        2.73387  -0.00001   0.00000   0.00013   0.00013   2.73400
   D18       -2.97167   0.00000   0.00000   0.00014   0.00014  -2.97152
         Item               Value     Threshold  Converged?
 Maximum Force            0.000041     0.000450     YES
 RMS     Force            0.000016     0.000300     YES
 Maximum Displacement     0.001734     0.001800     YES
 RMS     Displacement     0.000478     0.001200     YES
 Predicted change in Energy=-1.163417D-07
 Optimization completed.
    -- Stationary point found.
                           ----------------------------
                           !   Optimized Parameters   !
                           ! (Angstroms and Degrees)  !
 --------------------------                            --------------------------
 ! Name  Definition              Value          Derivative Info.                !
 --------------------------------------------------------------------------------
 ! R1    R(1,2)                  1.1955         -DE/DX =    0.0                 !
 ! R2    R(2,3)                  1.3538         -DE/DX =    0.0                 !
 ! R3    R(2,6)                  1.3539         -DE/DX =    0.0                 !
 ! R4    R(2,9)                  4.1347         -DE/DX =    0.0                 !
 ! R5    R(3,4)                  1.381          -DE/DX =    0.0                 !
 ! R6    R(3,9)                  3.71           -DE/DX =    0.0                 !
 ! R7    R(4,5)                  1.3338         -DE/DX =    0.0                 !
 ! R8    R(4,7)                  1.08           -DE/DX =    0.0                 !
 ! R9    R(4,9)                  2.8679         -DE/DX =    0.0                 !
 ! R10   R(5,6)                  1.381          -DE/DX =    0.0                 !
 ! R11   R(5,8)                  1.08           -DE/DX =    0.0                 !
 ! R12   R(5,9)                  2.8681         -DE/DX =    0.0                 !
 ! R13   R(6,9)                  3.7103         -DE/DX =    0.0                 !
 ! A1    A(1,2,3)              125.7987         -DE/DX =    0.0                 !
 ! A2    A(1,2,6)              125.7958         -DE/DX =    0.0                 !
 ! A3    A(1,2,9)              141.8082         -DE/DX =    0.0                 !
 ! A4    A(3,2,6)              108.4048         -DE/DX =    0.0                 !
 ! A5    A(2,3,4)              107.6044         -DE/DX =    0.0                 !
 ! A6    A(3,4,5)              108.1917         -DE/DX =    0.0                 !
 ! A7    A(3,4,7)              118.1054         -DE/DX =    0.0                 !
 ! A8    A(5,4,7)              133.6291         -DE/DX =    0.0                 !
 ! A9    A(7,4,9)               84.4634         -DE/DX =    0.0                 !
 ! A10   A(4,5,6)              108.1944         -DE/DX =    0.0                 !
 ! A11   A(4,5,8)              133.6275         -DE/DX =    0.0                 !
 ! A12   A(6,5,8)              118.1043         -DE/DX =    0.0                 !
 ! A13   A(8,5,9)               84.4738         -DE/DX =    0.0                 !
 ! A14   A(2,6,5)              107.6043         -DE/DX =    0.0                 !
 ! A15   A(2,9,4)               30.427          -DE/DX =    0.0                 !
 ! A16   A(2,9,5)               30.428          -DE/DX =    0.0                 !
 ! A17   A(3,9,5)               36.289          -DE/DX =    0.0                 !
 ! A18   A(3,9,6)               34.4314         -DE/DX =    0.0                 !
 ! A19   A(4,9,6)               36.2855         -DE/DX =    0.0                 !
 ! D1    D(1,2,3,4)           -179.5094         -DE/DX =    0.0                 !
 ! D2    D(6,2,3,4)              0.195          -DE/DX =    0.0                 !
 ! D3    D(1,2,6,5)            179.5089         -DE/DX =    0.0                 !
 ! D4    D(3,2,6,5)             -0.1955         -DE/DX =    0.0                 !
 ! D5    D(1,2,9,4)            152.6697         -DE/DX =    0.0                 !
 ! D6    D(1,2,9,5)           -152.6667         -DE/DX =    0.0                 !
 ! D7    D(2,3,4,5)             -0.1196         -DE/DX =    0.0                 !
 ! D8    D(2,3,4,7)           -177.417          -DE/DX =    0.0                 !
 ! D9    D(3,4,5,6)             -0.0008         -DE/DX =    0.0                 !
 ! D10   D(3,4,5,8)           -176.7094         -DE/DX =    0.0                 !
 ! D11   D(7,4,5,6)            176.7052         -DE/DX =    0.0                 !
 ! D12   D(7,4,5,8)             -0.0035         -DE/DX =    0.0                 !
 ! D13   D(7,4,9,2)           -156.636          -DE/DX =    0.0                 !
 ! D14   D(7,4,9,6)            170.2617         -DE/DX =    0.0                 !
 ! D15   D(4,5,6,2)              0.1209         -DE/DX =    0.0                 !
 ! D16   D(8,5,6,2)            177.4205         -DE/DX =    0.0                 !
 ! D17   D(8,5,9,2)            156.6391         -DE/DX =    0.0                 !
 ! D18   D(8,5,9,3)           -170.264          -DE/DX =    0.0                 !
 --------------------------------------------------------------------------------
 GradGradGradGradGradGradGradGradGradGradGradGradGradGradGradGradGradGrad

 Leave Link  103 at Mon May 16 17:28:32 2022, MaxMem=  2147483648 cpu:         1.4
 (Enter /gpfs/runtime/opt/gaussian/g09-D01/g09/l9999.exe)
 1\1\GINC-NODE1714\Freq\RM062X\6-31+G(d,p)\C3H2Li1O3(1+)\ROOT\16-May-20
 22\0\\#P Geom=AllCheck Guess=TCheck SCRF=Check GenChk RM062X/6-31+G(d,
 p) Freq\\872-36-6\\1,1\O,-1.9709497405,-0.0002727157,0.601302386\C,-0.
 8117004811,-0.0001980523,0.3091756274\O,-0.0445723472,1.0979113008,0.1
 128704582\C,1.2251636368,0.6667760687,-0.2175472289\C,1.2250571397,-0.
 66703621,-0.2180476878\O,-0.0446795356,-1.0982651449,0.1120473637\H,1.
 9918700758,1.4119910391,-0.3702508843\H,1.9916541836,-1.4122358718,-0.
 3713607638\Li,1.7147570686,0.001329586,-2.9638892704\\Version=EM64L-G0
 9RevD.01\State=1-A\HF=-348.4894195\RMSD=5.613e-10\RMSF=4.546e-05\ZeroP
 oint=0.0529936\Thermal=0.0589124\Dipole=5.4442305,0.0025856,-5.7567054
 \DipoleDeriv=-1.9653475,-0.0000896,0.4020725,-0.0000907,-0.5332289,0.0
 00007,0.3654444,0.0000087,-0.5920955,3.1440683,0.0001746,-0.6841087,0.
 0001607,1.2573588,0.0002352,-0.6300873,0.0002097,0.7553898,-1.3196169,
 0.2363949,0.3270548,-0.6078561,-0.7912869,0.1473823,0.2889499,-0.06957
 39,-0.2833991,0.5811767,-0.351702,-0.1942825,-0.3406751,0.2627246,0.22
 11654,-0.128378,0.2451833,-0.1549667,0.5813112,0.3518737,-0.1940527,0.
 3407278,0.263266,-0.2208354,-0.1281509,-0.2447856,-0.1551888,-1.319623
 5,-0.2366959,0.3268482,0.607684,-0.791335,-0.1478938,0.2894359,0.06920
 01,-0.2834325,0.1636981,0.0550071,0.0393183,0.0280399,0.2108852,-0.009
 3555,0.0185548,-0.0443474,0.2620524,0.1636683,-0.0550093,0.0392609,-0.
 0280084,0.210839,0.0093067,0.0185468,0.0442608,0.2620571,0.9706653,0.0
 000465,-0.0621106,0.0000178,0.9107772,-0.0000119,-0.0943156,-0.0001558
 ,1.1895832\Polar=62.0745017,0.0035201,52.0040083,-9.1412773,0.006028,3
 5.6706638\PG=C01 [X(C3H2Li1O3)]\NImag=0\\0.86931038,0.00004928,0.09729
 720,-0.21043852,0.00001374,0.08955334,-0.73877527,-0.00003717,0.166083
 43,1.13299629,-0.00003961,-0.09451318,0.00000090,0.00009535,0.49857233
 ,0.16661263,0.00000043,-0.12128407,-0.23036525,0.00009779,0.27031494,-
 0.06496720,-0.06161698,0.02162549,-0.13035812,-0.04631280,0.01304991,0
 .47538826,-0.04727752,0.00480163,0.01207980,-0.02150537,-0.21373047,0.
 00470416,-0.00627621,0.45930799,0.02122532,0.01550784,0.01274926,0.013
 17304,0.01063040,-0.07497063,-0.10592749,0.00422461,0.09363356,0.00050
 164,0.00778576,0.00016344,-0.06347323,-0.07132408,0.01762184,-0.226107
 49,0.04366357,0.04706209,0.62182866,-0.00556125,-0.00792905,0.00187682
 ,-0.01705170,0.01632554,0.00342936,0.07902932,-0.12664890,-0.02102070,
 0.16617026,0.93549688,0.00220934,-0.00298211,0.00197011,0.01493065,0.0
 2420862,0.00153352,0.04207651,-0.01254531,-0.06236376,-0.12016957,-0.0
 3077799,0.14144144,0.00050085,-0.00778701,0.00015743,-0.06346891,0.071
 32607,0.01767553,-0.05966233,0.01831415,0.02039865,-0.07173603,-0.0196
 9804,-0.00433212,0.62189409,0.00555992,-0.00793168,-0.00188442,0.01705
 171,0.01634841,-0.00342120,0.05018402,-0.05330225,-0.01373447,0.019622
 66,-0.54353401,-0.01028940,-0.16601233,0.93551096,0.00221311,0.0029741
 3,0.00197136,0.01494354,-0.02419765,0.00151325,0.02754320,-0.00304049,
 0.00943015,-0.00431238,0.00989716,-0.05383910,-0.12031950,0.03142250,0
 .14152598,-0.06495993,0.06160596,0.02167134,-0.13033590,0.04625741,0.0
 1307925,0.02176645,0.03314488,-0.00258812,-0.05966786,-0.05020906,0.02
 750943,-0.22621690,-0.07907382,0.04204463,0.47547470,0.04726916,0.0048
 1402,-0.01208756,0.02144772,-0.21369512,-0.00480681,-0.03314842,-0.080
 89286,0.00871777,-0.01833589,-0.05330092,0.00299099,-0.04371991,-0.126
 68288,0.01249213,0.00640583,0.45929082,0.02125847,-0.01551487,0.012728
 55,0.01318369,-0.01073561,-0.07498839,-0.00261094,-0.00879090,0.015666
 79,0.02038648,0.01368651,0.00944380,0.04705652,0.02096661,-0.06232671,
 -0.10594605,-0.00394786,0.09361899,-0.00122411,-0.00185672,0.00055330,
 -0.00248279,0.00758241,0.00053170,-0.01934877,-0.01975755,0.00386108,-
 0.20652967,-0.15204854,0.03877414,0.00830311,0.00179255,-0.00114369,0.
 00521334,0.00225974,0.00057852,0.21647665,0.00168245,0.00166578,-0.000
 52271,0.00247143,-0.00409893,-0.00061952,0.01462977,0.01571882,-0.0028
 4609,-0.16415305,-0.21818551,0.03197167,-0.01745918,-0.00176959,0.0038
 3550,-0.00036573,-0.00307570,-0.00000850,0.16309396,0.21049776,0.00031
 692,0.00075902,0.00071146,0.00125541,-0.00319729,-0.00005748,0.0056510
 3,0.00584384,-0.00266943,0.03449209,0.02737798,-0.03577245,-0.00007094
 ,0.00081705,0.00093746,-0.00001085,0.00011879,0.01002311,-0.04100880,-
 0.03071062,0.03064364,-0.00122459,0.00185676,0.00055472,-0.00248327,-0
 .00758371,0.00052653,0.00521298,-0.00226059,0.00057747,0.00830551,-0.0
 0179311,-0.00114589,-0.20649626,0.15202033,0.03888897,-0.01935377,0.01
 976463,0.00387827,-0.00034258,0.00033744,-0.00054911,0.21644563,-0.001
 68213,0.00166578,0.00052322,-0.00247287,-0.00410000,0.00061663,0.00036
 551,-0.00307519,-0.00000206,0.01745671,-0.00176843,-0.00383787,0.16413
 055,-0.21818298,-0.03212361,-0.01462590,0.01572076,0.00286045,-0.00033
 691,-0.00016561,-0.00002917,-0.16306998,0.21049059,0.00031595,-0.00075
 811,0.00071093,0.00125343,0.00319307,-0.00005348,-0.00000947,-0.000128
 43,0.01002191,-0.00005891,-0.00081623,0.00093635,0.03461740,-0.0275333
 7,-0.03583122,0.00563974,-0.00582947,-0.00267213,-0.00054925,0.0000312
 2,-0.00247009,-0.04113518,0.03086244,0.03070531,0.00083823,0.00000012,
 -0.00037064,-0.00161880,-0.00000106,0.00126786,-0.00192379,0.00195464,
 0.00221796,-0.00312154,0.00116212,0.00014751,-0.00311762,-0.00114505,0
 .00014211,-0.00192013,-0.00194286,0.00221504,-0.00006519,-0.00023711,-
 0.00007575,-0.00006366,0.00023501,-0.00007370,0.01099251,-0.00000030,0
 .00012949,0.00000022,0.00000090,-0.00110859,-0.00000085,0.00314579,-0.
 00217878,-0.00147731,-0.00088593,-0.00045561,0.00126139,0.00090569,-0.
 00045599,-0.00125968,-0.00313958,-0.00217813,0.00148417,-0.00072895,-0
 .00058702,-0.00097961,0.00072821,-0.00058492,0.00097887,-0.00002582,0.
 00741955,-0.00371322,-0.00000008,0.00088906,0.00554205,-0.00000023,-0.
 00200766,-0.00139823,-0.00234729,-0.00149786,0.00481492,-0.00365291,-0
 .00334991,0.00481704,0.00365670,-0.00338118,-0.00139938,0.00235200,-0.
 00149401,-0.00159700,-0.00113096,-0.00134621,-0.00159579,0.00112995,-0
 .00134757,-0.00547039,-0.00000719,0.01353535\\-0.00007996,-0.00000366,
 -0.00010875,0.,0.00000948,-0.00007327,-0.00002254,-0.00006805,-0.00000
 189,0.00000420,0.00005174,0.00004302,-0.00002037,-0.00005606,0.0000462
 9,-0.00000205,0.00005966,-0.00000012,0.00001576,-0.00001904,0.00002039
 ,0.00001425,0.00001828,0.00002088,0.00009070,0.00000765,0.00005345\\\@


 GOD DOES NOT PLAY WITH DICE.
               -- A. EINSTEIN
 Job cpu time:       0 days  0 hours  4 minutes 50.5 seconds.
 File lengths (MBytes):  RWF=    616 Int=      0 D2E=      0 Chk=     12 Scr=      8
 Normal termination of Gaussian 09 at Mon May 16 17:28:32 2022.
