 Entering Gaussian System, Link 0=g09
 Initial command:
 /gpfs/runtime/opt/gaussian/g09-D01/g09/l1.exe "/gpfs/data/yqi27/cgu13/CHEM1560Q/Gaussian/872-36-6/inp4/Gau-240760.inp" -scrdir="/gpfs/data/yqi27/cgu13/CHEM1560Q/Gaussian/872-36-6/inp4/"
 Entering Link 1 = /gpfs/runtime/opt/gaussian/g09-D01/g09/l1.exe PID=    240761.
  
 Copyright (c) 1988,1990,1992,1993,1995,1998,2003,2009,2013,
            Gaussian, Inc.  All Rights Reserved.
  
 This is part of the Gaussian(R) 09 program.  It is based on
 the Gaussian(R) 03 system (copyright 2003, Gaussian, Inc.),
 the Gaussian(R) 98 system (copyright 1998, Gaussian, Inc.),
 the Gaussian(R) 94 system (copyright 1995, Gaussian, Inc.),
 the Gaussian 92(TM) system (copyright 1992, Gaussian, Inc.),
 the Gaussian 90(TM) system (copyright 1990, Gaussian, Inc.),
 the Gaussian 88(TM) system (copyright 1988, Gaussian, Inc.),
 the Gaussian 86(TM) system (copyright 1986, Carnegie Mellon
 University), and the Gaussian 82(TM) system (copyright 1983,
 Carnegie Mellon University). Gaussian is a federally registered
 trademark of Gaussian, Inc.
  
 This software contains proprietary and confidential information,
 including trade secrets, belonging to Gaussian, Inc.
  
 This software is provided under written license and may be
 used, copied, transmitted, or stored only in accord with that
 written license.
  
 The following legend is applicable only to US Government
 contracts under FAR:
  
                    RESTRICTED RIGHTS LEGEND
  
 Use, reproduction and disclosure by the US Government is
 subject to restrictions as set forth in subparagraphs (a)
 and (c) of the Commercial Computer Software - Restricted
 Rights clause in FAR 52.227-19.
  
 Gaussian, Inc.
 340 Quinnipiac St., Bldg. 40, Wallingford CT 06492
  
  
 ---------------------------------------------------------------
 Warning -- This program may not be used in any manner that
 competes with the business of Gaussian, Inc. or will provide
 assistance to any competitor of Gaussian, Inc.  The licensee
 of this program is prohibited from giving any competitor of
 Gaussian, Inc. access to this program.  By using this program,
 the user acknowledges that Gaussian, Inc. is engaged in the
 business of creating and licensing software in the field of
 computational chemistry and represents and warrants to the
 licensee that it is not a competitor of Gaussian, Inc. and that
 it will not use this program in any manner prohibited above.
 ---------------------------------------------------------------
  

 Cite this work as:
 Gaussian 09, Revision D.01,
 M. J. Frisch, G. W. Trucks, H. B. Schlegel, G. E. Scuseria, 
 M. A. Robb, J. R. Cheeseman, G. Scalmani, V. Barone, B. Mennucci, 
 G. A. Petersson, H. Nakatsuji, M. Caricato, X. Li, H. P. Hratchian, 
 A. F. Izmaylov, J. Bloino, G. Zheng, J. L. Sonnenberg, M. Hada, 
 M. Ehara, K. Toyota, R. Fukuda, J. Hasegawa, M. Ishida, T. Nakajima, 
 Y. Honda, O. Kitao, H. Nakai, T. Vreven, J. A. Montgomery, Jr., 
 J. E. Peralta, F. Ogliaro, M. Bearpark, J. J. Heyd, E. Brothers, 
 K. N. Kudin, V. N. Staroverov, T. Keith, R. Kobayashi, J. Normand, 
 K. Raghavachari, A. Rendell, J. C. Burant, S. S. Iyengar, J. Tomasi, 
 M. Cossi, N. Rega, J. M. Millam, M. Klene, J. E. Knox, J. B. Cross, 
 V. Bakken, C. Adamo, J. Jaramillo, R. Gomperts, R. E. Stratmann, 
 O. Yazyev, A. J. Austin, R. Cammi, C. Pomelli, J. W. Ochterski, 
 R. L. Martin, K. Morokuma, V. G. Zakrzewski, G. A. Voth, 
 P. Salvador, J. J. Dannenberg, S. Dapprich, A. D. Daniels, 
 O. Farkas, J. B. Foresman, J. V. Ortiz, J. Cioslowski, 
 and D. J. Fox, Gaussian, Inc., Wallingford CT, 2013.
 
 ******************************************
 Gaussian 09:  EM64L-G09RevD.01 24-Apr-2013
                16-May-2022 
 ******************************************
 %Mem=16GB
 %NProcShared=8
 Will use up to    8 processors via shared memory.
 ----------------------------------------------------------------------
 #P M062X/6-31+G** EmpiricalDispersion=GD3 SCRF(SMD,solvent=DiMethylSul
 foxide) Opt Freq
 ----------------------------------------------------------------------
 1/14=-1,18=20,19=15,26=3,38=1/1,3;
 2/9=110,12=2,17=6,18=5,40=1/2;
 3/5=1,6=6,7=111,11=2,16=1,25=1,30=1,70=32201,71=1,72=21,74=-55,124=31/1,2,3;
 4//1;
 5/5=2,38=5,53=21/2;
 6/7=2,8=2,9=2,10=2,28=1/1;
 7//1,2,3,16;
 1/14=-1,18=20,19=15,26=3/3(2);
 2/9=110/2;
 99//99;
 2/9=110/2;
 3/5=1,6=6,7=111,11=2,16=1,25=1,30=1,70=32205,71=1,72=21,74=-55,124=31/1,2,3;
 4/5=5,16=3,69=1/1;
 5/5=2,38=5,53=21/2;
 7//1,2,3,16;
 1/14=-1,18=20,19=15,26=3/3(-5);
 2/9=110/2;
 6/7=2,8=2,9=2,10=2,19=2,28=1/1;
 99/9=1/99;
 Leave Link    1 at Mon May 16 17:16:49 2022, MaxMem=  2147483648 cpu:         1.0
 (Enter /gpfs/runtime/opt/gaussian/g09-D01/g09/l101.exe)
 --------
 872-36-6
 --------
 Symbolic Z-matrix:
 Charge =  1 Multiplicity = 1
 O                    -1.9336    0.       -0.0008 
 C                    -0.7179    0.       -0.0011 
 O                     0.0735    1.0847    0.0009 
 C                     1.3613    0.6617    0.0002 
 C                     1.3613   -0.6617   -0.0022 
 O                     0.0735   -1.0847    0.0024 
 H                     2.2361    1.2951    0.0009 
 H                     2.2361   -1.2951   -0.0038 
 Li                   -2.9265    0.       -0.0004 
 
 NAtoms=      9 NQM=        9 NQMF=       0 NMMI=      0 NMMIF=      0
                NMic=       0 NMicF=      0.
                    Isotopes and Nuclear Properties:
 (Nuclear quadrupole moments (NQMom) in fm**2, nuclear magnetic moments (NMagM)
  in nuclear magnetons)

  Atom         1           2           3           4           5           6           7           8           9
 IAtWgt=          16          12          16          12          12          16           1           1           7
 AtmWgt=  15.9949146  12.0000000  15.9949146  12.0000000  12.0000000  15.9949146   1.0078250   1.0078250   7.0160045
 NucSpn=           0           0           0           0           0           0           1           1           3
 AtZEff=   0.0000000   0.0000000   0.0000000   0.0000000   0.0000000   0.0000000   0.0000000   0.0000000   0.0000000
 NQMom=    0.0000000   0.0000000   0.0000000   0.0000000   0.0000000   0.0000000   0.0000000   0.0000000  -4.0100000
 NMagM=    0.0000000   0.0000000   0.0000000   0.0000000   0.0000000   0.0000000   2.7928460   2.7928460   3.2564240
 AtZNuc=   8.0000000   6.0000000   8.0000000   6.0000000   6.0000000   8.0000000   1.0000000   1.0000000   3.0000000
 Leave Link  101 at Mon May 16 17:16:49 2022, MaxMem=  2147483648 cpu:         2.3
 (Enter /gpfs/runtime/opt/gaussian/g09-D01/g09/l103.exe)

 GradGradGradGradGradGradGradGradGradGradGradGradGradGradGradGradGradGrad
 Berny optimization.
 Initialization pass.
                           ----------------------------
                           !    Initial Parameters    !
                           ! (Angstroms and Degrees)  !
 --------------------------                            --------------------------
 ! Name  Definition              Value          Derivative Info.                !
 --------------------------------------------------------------------------------
 ! R1    R(1,2)                  1.2157         estimate D2E/DX2                !
 ! R2    R(1,9)                  0.9929         estimate D2E/DX2                !
 ! R3    R(2,3)                  1.3427         estimate D2E/DX2                !
 ! R4    R(2,6)                  1.3427         estimate D2E/DX2                !
 ! R5    R(2,9)                  2.2086         estimate D2E/DX2                !
 ! R6    R(3,4)                  1.3555         estimate D2E/DX2                !
 ! R7    R(4,5)                  1.3234         estimate D2E/DX2                !
 ! R8    R(4,7)                  1.08           estimate D2E/DX2                !
 ! R9    R(5,6)                  1.3555         estimate D2E/DX2                !
 ! R10   R(5,8)                  1.08           estimate D2E/DX2                !
 ! A1    A(1,2,3)              126.1145         estimate D2E/DX2                !
 ! A2    A(1,2,6)              126.1144         estimate D2E/DX2                !
 ! A3    A(3,2,6)              107.7705         estimate D2E/DX2                !
 ! A4    A(3,2,9)              126.1145         estimate D2E/DX2                !
 ! A5    A(6,2,9)              126.1144         estimate D2E/DX2                !
 ! A6    A(2,3,4)              107.9309         estimate D2E/DX2                !
 ! A7    A(3,4,5)              108.1837         estimate D2E/DX2                !
 ! A8    A(3,4,7)              125.9098         estimate D2E/DX2                !
 ! A9    A(5,4,7)              125.9065         estimate D2E/DX2                !
 ! A10   A(4,5,6)              108.1831         estimate D2E/DX2                !
 ! A11   A(4,5,8)              125.9065         estimate D2E/DX2                !
 ! A12   A(6,5,8)              125.91           estimate D2E/DX2                !
 ! A13   A(2,6,5)              107.9302         estimate D2E/DX2                !
 ! D1    D(1,2,3,4)            179.9789         estimate D2E/DX2                !
 ! D2    D(6,2,3,4)              0.2429         estimate D2E/DX2                !
 ! D3    D(9,2,3,4)            179.974          estimate D2E/DX2                !
 ! D4    D(1,2,6,5)            179.8738         estimate D2E/DX2                !
 ! D5    D(3,2,6,5)             -0.3902         estimate D2E/DX2                !
 ! D6    D(9,2,6,5)            179.8788         estimate D2E/DX2                !
 ! D7    D(2,3,4,5)              0.0004         estimate D2E/DX2                !
 ! D8    D(2,3,4,7)            179.968          estimate D2E/DX2                !
 ! D9    D(3,4,5,6)             -0.2418         estimate D2E/DX2                !
 ! D10   D(3,4,5,8)            179.9675         estimate D2E/DX2                !
 ! D11   D(7,4,5,6)            179.7906         estimate D2E/DX2                !
 ! D12   D(7,4,5,8)             -0.0002         estimate D2E/DX2                !
 ! D13   D(4,5,6,2)              0.3931         estimate D2E/DX2                !
 ! D14   D(8,5,6,2)           -179.8161         estimate D2E/DX2                !
 --------------------------------------------------------------------------------
 Trust Radius=3.00D-01 FncErr=1.00D-07 GrdErr=1.00D-06
 Number of steps in this run=     47 maximum allowed number of steps=    100.
 GradGradGradGradGradGradGradGradGradGradGradGradGradGradGradGradGradGrad

 Leave Link  103 at Mon May 16 17:16:49 2022, MaxMem=  2147483648 cpu:         0.2
 (Enter /gpfs/runtime/opt/gaussian/g09-D01/g09/l202.exe)
                          Input orientation:                          
 ---------------------------------------------------------------------
 Center     Atomic      Atomic             Coordinates (Angstroms)
 Number     Number       Type             X           Y           Z
 ---------------------------------------------------------------------
      1          8           0       -1.933600    0.000000   -0.000800
      2          6           0       -0.717900    0.000000   -0.001100
      3          8           0        0.073500    1.084700    0.000900
      4          6           0        1.361300    0.661700    0.000200
      5          6           0        1.361300   -0.661700   -0.002200
      6          8           0        0.073500   -1.084700    0.002400
      7          1           0        2.236100    1.295100    0.000900
      8          1           0        2.236100   -1.295100   -0.003800
      9          3           0       -2.926500    0.000000   -0.000400
 ---------------------------------------------------------------------
                    Distance matrix (angstroms):
                    1          2          3          4          5
     1  O    0.000000
     2  C    1.215700   0.000000
     3  O    2.281453   1.342718   0.000000
     4  C    3.360687   2.181954   1.355492   0.000000
     5  C    3.360687   2.181953   2.169874   1.323402   0.000000
     6  O    2.281455   1.342721   2.169401   2.169872   1.355500
     7  H    4.366198   3.225431   2.172811   1.080033   2.143444
     8  H    4.366199   3.225431   3.215635   2.143445   1.080034
     9  Li   0.992900   2.208600   3.190075   4.338557   4.338557
                    6          7          8          9
     6  O    0.000000
     7  H    3.215632   0.000000
     8  H    2.172820   2.590204   0.000000
     9  Li   3.190076   5.322567   5.322568   0.000000
 Stoichiometry    C3H2LiO3(1+)
 Framework group  C1[X(C3H2LiO3)]
 Deg. of freedom    21
 Full point group                 C1      NOp   1
 Largest Abelian subgroup         C1      NOp   1
 Largest concise Abelian subgroup C1      NOp   1
                         Standard orientation:                         
 ---------------------------------------------------------------------
 Center     Atomic      Atomic             Coordinates (Angstroms)
 Number     Number       Type             X           Y           Z
 ---------------------------------------------------------------------
      1          8           0        1.793772    0.000000    0.000743
      2          6           0        0.578072    0.000000    0.001043
      3          8           0       -0.213328    1.084700   -0.000957
      4          6           0       -1.501128    0.661700   -0.000257
      5          6           0       -1.501128   -0.661700    0.002143
      6          8           0       -0.213328   -1.084700   -0.002457
      7          1           0       -2.375928    1.295100   -0.000957
      8          1           0       -2.375928   -1.295100    0.003743
      9          3           0        2.786672    0.000000    0.000343
 ---------------------------------------------------------------------
 Rotational constants (GHZ):      9.8078994      2.8671830      2.2186122
 Leave Link  202 at Mon May 16 17:16:49 2022, MaxMem=  2147483648 cpu:         0.3
 (Enter /gpfs/runtime/opt/gaussian/g09-D01/g09/l301.exe)
 Standard basis: 6-31+G(d,p) (6D, 7F)
 Ernie: Thresh=  0.10000D-02 Tol=  0.10000D-05 Strict=F.
 There are   143 symmetry adapted cartesian basis functions of A   symmetry.
 There are   143 symmetry adapted basis functions of A   symmetry.
   143 basis functions,   238 primitive gaussians,   143 cartesian basis functions
    23 alpha electrons       23 beta electrons
       nuclear repulsion energy       261.4293992160 Hartrees.
 IExCor= 4336 DFT=T Ex+Corr=M062X ExCW=0 ScaHFX=  0.540000
 ScaDFX=  1.000000  1.000000  1.000000  1.000000 ScalE2=  1.000000  1.000000
 IRadAn=      0 IRanWt=     -1 IRanGd=            0 ICorTp=0 IEmpDi=131
 NAtoms=    9 NActive=    9 NUniq=    9 SFac= 1.00D+00 NAtFMM=   60 NAOKFM=F Big=F
 Integral buffers will be    131072 words long.
 Raffenetti 2 integral format.
 Two-electron integral symmetry is turned on.
 R6Disp:  Grimme-D3 Dispersion energy=       -0.0000639408 Hartrees.
 Nuclear repulsion after empirical dispersion term =      261.4293352752 Hartrees.
 ------------------------------------------------------------------------------
 Polarizable Continuum Model (PCM)
 =================================
 Model                : PCM (using non-symmetric T matrix).
 Atomic radii         : SMD-Coulomb.
 Polarization charges : Total charges.
 Charge compensation  : None.
 Solution method      : On-the-fly selection.
 Cavity type          : VdW (van der Waals Surface) (Alpha=1.000).
 Cavity algorithm     : GePol (No added spheres)
                        Default sphere list used, NSphG=    9.
                        Lebedev-Laikov grids with approx.  5.0 points / Ang**2.
                        Smoothing algorithm: Karplus/York (Gamma=1.0000).
                        Polarization charges: spherical gaussians, with
                                              point-specific exponents (IZeta= 3).
                        Self-potential: point-specific (ISelfS= 7).
                        Self-field    : sphere-specific E.n sum rule (ISelfD= 2).
 1st derivatives      : Analytical E(r).r(x)/FMM algorithm (CHGder, D1EAlg=3).
                        Cavity 1st derivative terms included.
 Solvent              : DiMethylSulfoxide, Eps=  46.826000 Eps(inf)=   2.007889
 ------------------------------------------------------------------------------
 Spheres list:
 ISph  on   Nord     Re0    Alpha      Xe            Ye            Ze
    1   O      1    2.2940  1.000      1.793772      0.000000      0.000743
    2   C      2    1.8500  1.000      0.578072      0.000000      0.001043
    3   O      3    2.2940  1.000     -0.213328      1.084700     -0.000957
    4   C      4    1.8500  1.000     -1.501128      0.661700     -0.000257
    5   C      5    1.8500  1.000     -1.501128     -0.661700      0.002143
    6   O      6    2.2940  1.000     -0.213328     -1.084700     -0.002457
    7   H      7    1.2000  1.000     -2.375928      1.295100     -0.000957
    8   H      8    1.2000  1.000     -2.375928     -1.295100      0.003743
    9  Li      9    1.8200  1.000      2.786672      0.000000      0.000343
 ------------------------------------------------------------------------------
 GePol: Number of generator spheres                  =       9
 GePol: Total number of spheres                      =       9
 GePol: Number of exposed spheres                    =       9 (100.00%)
 GePol: Number of points                             =    1085
 GePol: Average weight of points                     =       0.12
 GePol: Minimum weight of points                     =   0.61D-08
 GePol: Maximum weight of points                     =    0.17992
 GePol: Number of points with low weight             =      47
 GePol: Fraction of low-weight points (<1% of avg)   =       4.33%
 GePol: Cavity surface area                          =    132.700 Ang**2
 GePol: Cavity volume                                =    125.950 Ang**3
 ------------------------------------------------------------------------------
 Atomic radii for non-electrostatic terms: SMD-CDS.
 ------------------------------------------------------------------------------
 PCM non-electrostatic energy =         0.0036398289 Hartrees.
 Nuclear repulsion after PCM non-electrostatic terms =      261.4329751041 Hartrees.
 Leave Link  301 at Mon May 16 17:16:50 2022, MaxMem=  2147483648 cpu:         0.8
 (Enter /gpfs/runtime/opt/gaussian/g09-D01/g09/l302.exe)
 NPDir=0 NMtPBC=     1 NCelOv=     1 NCel=       1 NClECP=     1 NCelD=      1
         NCelK=      1 NCelE2=     1 NClLst=     1 CellRange=     0.0.
 One-electron integrals computed using PRISM.
 NBasis=   143 RedAO= T EigKep=  7.39D-05  NBF=   143
 NBsUse=   143 1.00D-06 EigRej= -1.00D+00 NBFU=   143
 Precomputing XC quadrature grid using
 IXCGrd= 4 IRadAn=           0 IRanWt=          -1 IRanGd=           0 AccXCQ= 0.00D+00.
 Generated NRdTot=       0 NPtTot=           0 NUsed=           0 NTot=          32
 NSgBfM=   143   143   143   143   143 MxSgAt=     9 MxSgA2=     9.
 Leave Link  302 at Mon May 16 17:16:50 2022, MaxMem=  2147483648 cpu:         1.1
 (Enter /gpfs/runtime/opt/gaussian/g09-D01/g09/l303.exe)
 DipDrv:  MaxL=1.
 Leave Link  303 at Mon May 16 17:16:50 2022, MaxMem=  2147483648 cpu:         0.2
 (Enter /gpfs/runtime/opt/gaussian/g09-D01/g09/l401.exe)
 ExpMin= 7.40D-03 ExpMax= 5.48D+03 ExpMxC= 8.25D+02 IAcc=3 IRadAn=         5 AccDes= 0.00D+00
 Harris functional with IExCor= 1009 and IRadAn=       5 diagonalized for initial guess.
 HarFok:  IExCor= 1009 AccDes= 0.00D+00 IRadAn=         5 IDoV= 1 UseB2=F ITyADJ=14
 ICtDFT=  3500011 ScaDFX=  1.000000  1.000000  1.000000  1.000000
 FoFCou: FMM=F IPFlag=           0 FMFlag=      100000 FMFlg1=           0
         NFxFlg=           0 DoJE=T BraDBF=F KetDBF=T FulRan=T
         wScrn=  0.000000 ICntrl=     500 IOpCl=  0 I1Cent=   200000004 NGrid=           0
         NMat0=    1 NMatS0=      1 NMatT0=    0 NMatD0=    1 NMtDS0=    0 NMtDT0=    0
 Petite list used in FoFCou.
 Harris En= -347.915976144657    
 JPrj=0 DoOrth=F DoCkMO=F.
 Leave Link  401 at Mon May 16 17:16:50 2022, MaxMem=  2147483648 cpu:         3.2
 (Enter /gpfs/runtime/opt/gaussian/g09-D01/g09/l502.exe)
 Closed shell SCF:
 Using DIIS extrapolation, IDIIS=  1040.
 Integral symmetry usage will be decided dynamically.
 Keep R1 ints in memory in canonical form, NReq=57383699.
 IVT=       82101 IEndB=       82101 NGot=  2147483648 MDV=  2094392592
 LenX=  2094392592 LenY=  2094371702
 Requested convergence on RMS density matrix=1.00D-08 within 128 cycles.
 Requested convergence on MAX density matrix=1.00D-06.
 Requested convergence on             energy=1.00D-06.
 No special actions if energy rises.
 FoFCou: FMM=F IPFlag=           0 FMFlag=           0 FMFlg1=           0
         NFxFlg=           0 DoJE=F BraDBF=F KetDBF=F FulRan=T
         wScrn=  0.000000 ICntrl=     600 IOpCl=  0 I1Cent=           0 NGrid=           0
         NMat0=    1 NMatS0=  10296 NMatT0=    0 NMatD0=    1 NMtDS0=    0 NMtDT0=    0
 Symmetry not used in FoFCou.

 Cycle   1  Pass 1  IDiag  1:
 Inv3:  Mode=1 IEnd=     3531675.
 Iteration    1 A*A^-1 deviation from unit magnitude is 5.55D-15 for    352.
 Iteration    1 A*A^-1 deviation from orthogonality  is 4.51D-15 for   1042    794.
 Iteration    1 A^-1*A deviation from unit magnitude is 5.00D-15 for    373.
 Iteration    1 A^-1*A deviation from orthogonality  is 1.85D-12 for    574    300.
 E= -347.843658488673    
 DIIS: error= 4.74D-02 at cycle   1 NSaved=   1.
 NSaved= 1 IEnMin= 1 EnMin= -347.843658488673     IErMin= 1 ErrMin= 4.74D-02
 ErrMax= 4.74D-02  0.00D+00 EMaxC= 1.00D-01 BMatC= 3.55D-01 BMatP= 3.55D-01
 IDIUse=3 WtCom= 5.26D-01 WtEn= 4.74D-01
 Coeff-Com:  0.100D+01
 Coeff-En:   0.100D+01
 Coeff:      0.100D+01
 Gap=     0.277 Goal=   None    Shift=    0.000
 GapD=    0.277 DampG=1.000 DampE=0.500 DampFc=0.5000 IDamp=-1.
 Damping current iteration by 5.00D-01
 RMSDP=1.06D-02 MaxDP=2.65D-01              OVMax= 2.98D-01

 Cycle   2  Pass 1  IDiag  1:
 E= -347.932563324633     Delta-E=       -0.088904835960 Rises=F Damp=T
 DIIS: error= 1.03D-02 at cycle   2 NSaved=   2.
 NSaved= 2 IEnMin= 2 EnMin= -347.932563324633     IErMin= 2 ErrMin= 1.03D-02
 ErrMax= 1.03D-02  0.00D+00 EMaxC= 1.00D-01 BMatC= 2.63D-02 BMatP= 3.55D-01
 IDIUse=3 WtCom= 8.97D-01 WtEn= 1.03D-01
 Coeff-Com:  0.998D-01 0.900D+00
 Coeff-En:   0.229D+00 0.771D+00
 Coeff:      0.113D+00 0.887D+00
 Gap=     0.334 Goal=   None    Shift=    0.000
 RMSDP=2.69D-03 MaxDP=1.12D-01 DE=-8.89D-02 OVMax= 1.98D-01

 Cycle   3  Pass 1  IDiag  1:
 E= -348.080088817158     Delta-E=       -0.147525492525 Rises=F Damp=F
 DIIS: error= 5.57D-03 at cycle   3 NSaved=   3.
 NSaved= 3 IEnMin= 3 EnMin= -348.080088817158     IErMin= 3 ErrMin= 5.57D-03
 ErrMax= 5.57D-03  0.00D+00 EMaxC= 1.00D-01 BMatC= 5.85D-03 BMatP= 2.63D-02
 IDIUse=3 WtCom= 9.44D-01 WtEn= 5.57D-02
 Coeff-Com: -0.360D-01 0.263D+00 0.773D+00
 Coeff-En:   0.000D+00 0.000D+00 0.100D+01
 Coeff:     -0.340D-01 0.248D+00 0.786D+00
 Gap=     0.332 Goal=   None    Shift=    0.000
 RMSDP=7.56D-04 MaxDP=2.26D-02 DE=-1.48D-01 OVMax= 2.53D-02

 Cycle   4  Pass 1  IDiag  1:
 E= -348.083793152228     Delta-E=       -0.003704335070 Rises=F Damp=F
 DIIS: error= 3.13D-03 at cycle   4 NSaved=   4.
 NSaved= 4 IEnMin= 4 EnMin= -348.083793152228     IErMin= 4 ErrMin= 3.13D-03
 ErrMax= 3.13D-03  0.00D+00 EMaxC= 1.00D-01 BMatC= 1.23D-03 BMatP= 5.85D-03
 IDIUse=3 WtCom= 9.69D-01 WtEn= 3.13D-02
 Coeff-Com: -0.261D-01 0.676D-01 0.375D+00 0.583D+00
 Coeff-En:   0.000D+00 0.000D+00 0.568D-01 0.943D+00
 Coeff:     -0.253D-01 0.655D-01 0.365D+00 0.595D+00
 Gap=     0.326 Goal=   None    Shift=    0.000
 RMSDP=2.38D-04 MaxDP=7.66D-03 DE=-3.70D-03 OVMax= 9.28D-03

 Cycle   5  Pass 1  IDiag  1:
 E= -348.084647696497     Delta-E=       -0.000854544269 Rises=F Damp=F
 DIIS: error= 6.01D-04 at cycle   5 NSaved=   5.
 NSaved= 5 IEnMin= 5 EnMin= -348.084647696497     IErMin= 5 ErrMin= 6.01D-04
 ErrMax= 6.01D-04  0.00D+00 EMaxC= 1.00D-01 BMatC= 5.77D-05 BMatP= 1.23D-03
 IDIUse=3 WtCom= 9.94D-01 WtEn= 6.01D-03
 Coeff-Com: -0.816D-02 0.117D-01 0.848D-01 0.230D+00 0.682D+00
 Coeff-En:   0.000D+00 0.000D+00 0.000D+00 0.000D+00 0.100D+01
 Coeff:     -0.811D-02 0.116D-01 0.843D-01 0.229D+00 0.684D+00
 Gap=     0.325 Goal=   None    Shift=    0.000
 RMSDP=6.16D-05 MaxDP=2.30D-03 DE=-8.55D-04 OVMax= 2.03D-03

 Cycle   6  Pass 1  IDiag  1:
 E= -348.084692781432     Delta-E=       -0.000045084935 Rises=F Damp=F
 DIIS: error= 1.32D-04 at cycle   6 NSaved=   6.
 NSaved= 6 IEnMin= 6 EnMin= -348.084692781432     IErMin= 6 ErrMin= 1.32D-04
 ErrMax= 1.32D-04  0.00D+00 EMaxC= 1.00D-01 BMatC= 2.87D-06 BMatP= 5.77D-05
 IDIUse=3 WtCom= 9.99D-01 WtEn= 1.32D-03
 Coeff-Com: -0.121D-02 0.816D-04 0.161D-02 0.230D-01 0.212D+00 0.764D+00
 Coeff-En:   0.000D+00 0.000D+00 0.000D+00 0.000D+00 0.000D+00 0.100D+01
 Coeff:     -0.121D-02 0.815D-04 0.161D-02 0.230D-01 0.212D+00 0.764D+00
 Gap=     0.325 Goal=   None    Shift=    0.000
 RMSDP=1.81D-05 MaxDP=8.27D-04 DE=-4.51D-05 OVMax= 3.81D-04

 Cycle   7  Pass 1  IDiag  1:
 E= -348.084694997766     Delta-E=       -0.000002216334 Rises=F Damp=F
 DIIS: error= 4.83D-05 at cycle   7 NSaved=   7.
 NSaved= 7 IEnMin= 7 EnMin= -348.084694997766     IErMin= 7 ErrMin= 4.83D-05
 ErrMax= 4.83D-05  0.00D+00 EMaxC= 1.00D-01 BMatC= 1.89D-07 BMatP= 2.87D-06
 IDIUse=1 WtCom= 1.00D+00 WtEn= 0.00D+00
 Coeff-Com:  0.260D-03-0.666D-03-0.680D-02-0.154D-01 0.127D-01 0.193D+00
 Coeff-Com:  0.816D+00
 Coeff:      0.260D-03-0.666D-03-0.680D-02-0.154D-01 0.127D-01 0.193D+00
 Coeff:      0.816D+00
 Gap=     0.325 Goal=   None    Shift=    0.000
 RMSDP=8.82D-06 MaxDP=5.44D-04 DE=-2.22D-06 OVMax= 1.62D-04

 Cycle   8  Pass 1  IDiag  1:
 E= -348.084695185063     Delta-E=       -0.000000187297 Rises=F Damp=F
 DIIS: error= 1.06D-05 at cycle   8 NSaved=   8.
 NSaved= 8 IEnMin= 8 EnMin= -348.084695185063     IErMin= 8 ErrMin= 1.06D-05
 ErrMax= 1.06D-05  0.00D+00 EMaxC= 1.00D-01 BMatC= 2.20D-08 BMatP= 1.89D-07
 IDIUse=1 WtCom= 1.00D+00 WtEn= 0.00D+00
 Coeff-Com:  0.122D-03-0.141D-03-0.209D-02-0.686D-02-0.896D-02 0.396D-02
 Coeff-Com:  0.287D+00 0.727D+00
 Coeff:      0.122D-03-0.141D-03-0.209D-02-0.686D-02-0.896D-02 0.396D-02
 Coeff:      0.287D+00 0.727D+00
 Gap=     0.325 Goal=   None    Shift=    0.000
 RMSDP=1.44D-06 MaxDP=3.80D-05 DE=-1.87D-07 OVMax= 7.66D-05

 Cycle   9  Pass 1  IDiag  1:
 E= -348.084695207743     Delta-E=       -0.000000022680 Rises=F Damp=F
 DIIS: error= 3.10D-06 at cycle   9 NSaved=   9.
 NSaved= 9 IEnMin= 9 EnMin= -348.084695207743     IErMin= 9 ErrMin= 3.10D-06
 ErrMax= 3.10D-06  0.00D+00 EMaxC= 1.00D-01 BMatC= 1.00D-09 BMatP= 2.20D-08
 IDIUse=1 WtCom= 1.00D+00 WtEn= 0.00D+00
 Coeff-Com: -0.223D-04 0.559D-04 0.340D-03 0.410D-03-0.132D-02-0.167D-01
 Coeff-Com: -0.537D-01 0.575D-01 0.101D+01
 Coeff:     -0.223D-04 0.559D-04 0.340D-03 0.410D-03-0.132D-02-0.167D-01
 Coeff:     -0.537D-01 0.575D-01 0.101D+01
 Gap=     0.325 Goal=   None    Shift=    0.000
 RMSDP=7.50D-07 MaxDP=4.06D-05 DE=-2.27D-08 OVMax= 2.42D-05

 Cycle  10  Pass 1  IDiag  1:
 E= -348.084695209511     Delta-E=       -0.000000001768 Rises=F Damp=F
 DIIS: error= 4.67D-07 at cycle  10 NSaved=  10.
 NSaved=10 IEnMin=10 EnMin= -348.084695209511     IErMin=10 ErrMin= 4.67D-07
 ErrMax= 4.67D-07  0.00D+00 EMaxC= 1.00D-01 BMatC= 3.01D-11 BMatP= 1.00D-09
 IDIUse=1 WtCom= 1.00D+00 WtEn= 0.00D+00
 Coeff-Com: -0.451D-05 0.673D-05 0.740D-04 0.165D-03 0.498D-03 0.131D-03
 Coeff-Com: -0.108D-01-0.261D-01-0.346D-01 0.107D+01
 Coeff:     -0.451D-05 0.673D-05 0.740D-04 0.165D-03 0.498D-03 0.131D-03
 Coeff:     -0.108D-01-0.261D-01-0.346D-01 0.107D+01
 Gap=     0.325 Goal=   None    Shift=    0.000
 RMSDP=1.11D-07 MaxDP=3.31D-06 DE=-1.77D-09 OVMax= 8.10D-06

 Cycle  11  Pass 1  IDiag  1:
 E= -348.084695209578     Delta-E=       -0.000000000067 Rises=F Damp=F
 DIIS: error= 1.03D-07 at cycle  11 NSaved=  11.
 NSaved=11 IEnMin=11 EnMin= -348.084695209578     IErMin=11 ErrMin= 1.03D-07
 ErrMax= 1.03D-07  0.00D+00 EMaxC= 1.00D-01 BMatC= 2.91D-12 BMatP= 3.01D-11
 IDIUse=1 WtCom= 1.00D+00 WtEn= 0.00D+00
 Coeff-Com:  0.156D-05-0.311D-05-0.128D-04-0.427D-04 0.998D-04 0.715D-03
 Coeff-Com:  0.263D-02 0.137D-02-0.498D-01-0.604D-01 0.111D+01
 Coeff:      0.156D-05-0.311D-05-0.128D-04-0.427D-04 0.998D-04 0.715D-03
 Coeff:      0.263D-02 0.137D-02-0.498D-01-0.604D-01 0.111D+01
 Gap=     0.325 Goal=   None    Shift=    0.000
 RMSDP=3.37D-08 MaxDP=9.49D-07 DE=-6.68D-11 OVMax= 1.77D-06

 Cycle  12  Pass 1  IDiag  1:
 E= -348.084695209583     Delta-E=       -0.000000000006 Rises=F Damp=F
 DIIS: error= 2.32D-08 at cycle  12 NSaved=  12.
 NSaved=12 IEnMin=12 EnMin= -348.084695209583     IErMin=12 ErrMin= 2.32D-08
 ErrMax= 2.32D-08  0.00D+00 EMaxC= 1.00D-01 BMatC= 1.08D-13 BMatP= 2.91D-12
 IDIUse=1 WtCom= 1.00D+00 WtEn= 0.00D+00
 Coeff-Com:  0.102D-06-0.214D-06-0.330D-06-0.408D-05-0.194D-04-0.948D-04
 Coeff-Com:  0.155D-03 0.145D-02 0.630D-02-0.484D-01-0.103D+00 0.114D+01
 Coeff:      0.102D-06-0.214D-06-0.330D-06-0.408D-05-0.194D-04-0.948D-04
 Coeff:      0.155D-03 0.145D-02 0.630D-02-0.484D-01-0.103D+00 0.114D+01
 Gap=     0.325 Goal=   None    Shift=    0.000
 RMSDP=1.08D-08 MaxDP=4.34D-07 DE=-5.68D-12 OVMax= 3.81D-07

 Cycle  13  Pass 1  IDiag  1:
 E= -348.084695209583     Delta-E=        0.000000000000 Rises=F Damp=F
 DIIS: error= 1.34D-08 at cycle  13 NSaved=  13.
 NSaved=13 IEnMin=13 EnMin= -348.084695209583     IErMin=13 ErrMin= 1.34D-08
 ErrMax= 1.34D-08  0.00D+00 EMaxC= 1.00D-01 BMatC= 2.17D-14 BMatP= 1.08D-13
 IDIUse=1 WtCom= 1.00D+00 WtEn= 0.00D+00
 Coeff-Com: -0.220D-07 0.333D-07 0.512D-06-0.808D-07-0.131D-04-0.787D-04
 Coeff-Com: -0.464D-04 0.622D-03 0.533D-02-0.202D-01-0.972D-01 0.538D+00
 Coeff-Com:  0.573D+00
 Coeff:     -0.220D-07 0.333D-07 0.512D-06-0.808D-07-0.131D-04-0.787D-04
 Coeff:     -0.464D-04 0.622D-03 0.533D-02-0.202D-01-0.972D-01 0.538D+00
 Coeff:      0.573D+00
 Gap=     0.325 Goal=   None    Shift=    0.000
 RMSDP=1.60D-09 MaxDP=6.48D-08 DE=-1.14D-13 OVMax= 5.03D-08

 Error on total polarization charges =  0.00954
 SCF Done:  E(RM062X) =  -348.084695210     A.U. after   13 cycles
            NFock= 13  Conv=0.16D-08     -V/T= 2.0019
 KE= 3.474251276869D+02 PE=-1.329967896991D+03 EE= 3.730250989903D+02
 SMD-CDS (non-electrostatic) energy       (kcal/mol) =       2.28
 (included in total energy above)
 Leave Link  502 at Mon May 16 17:16:58 2022, MaxMem=  2147483648 cpu:        51.5
 (Enter /gpfs/runtime/opt/gaussian/g09-D01/g09/l601.exe)
 Copying SCF densities to generalized density rwf, IOpCl= 0 IROHF=0.

 **********************************************************************

            Population analysis using the SCF density.

 **********************************************************************

 Orbital symmetries:
       Occupied  (A) (A) (A) (A) (A) (A) (A) (A) (A) (A) (A) (A)
                 (A) (A) (A) (A) (A) (A) (A) (A) (A) (A) (A)
       Virtual   (A) (A) (A) (A) (A) (A) (A) (A) (A) (A) (A) (A)
                 (A) (A) (A) (A) (A) (A) (A) (A) (A) (A) (A) (A)
                 (A) (A) (A) (A) (A) (A) (A) (A) (A) (A) (A) (A)
                 (A) (A) (A) (A) (A) (A) (A) (A) (A) (A) (A) (A)
                 (A) (A) (A) (A) (A) (A) (A) (A) (A) (A) (A) (A)
                 (A) (A) (A) (A) (A) (A) (A) (A) (A) (A) (A) (A)
                 (A) (A) (A) (A) (A) (A) (A) (A) (A) (A) (A) (A)
                 (A) (A) (A) (A) (A) (A) (A) (A) (A) (A) (A) (A)
                 (A) (A) (A) (A) (A) (A) (A) (A) (A) (A) (A) (A)
                 (A) (A) (A) (A) (A) (A) (A) (A) (A) (A) (A) (A)
 The electronic state is 1-A.
 Alpha  occ. eigenvalues --  -19.79278 -19.79275 -19.69470 -10.80826 -10.64711
 Alpha  occ. eigenvalues --  -10.64590  -2.26186  -1.38949  -1.26032  -1.24665
 Alpha  occ. eigenvalues --   -0.92700  -0.81299  -0.78157  -0.67640  -0.67526
 Alpha  occ. eigenvalues --   -0.59679  -0.58951  -0.54468  -0.54111  -0.52604
 Alpha  occ. eigenvalues --   -0.51413  -0.50941  -0.34829
 Alpha virt. eigenvalues --   -0.02338  -0.01736  -0.00180  -0.00065  -0.00060
 Alpha virt. eigenvalues --    0.02095   0.02643   0.03394   0.04725   0.04858
 Alpha virt. eigenvalues --    0.04869   0.05139   0.06845   0.07128   0.08710
 Alpha virt. eigenvalues --    0.08772   0.11127   0.11388   0.13578   0.14096
 Alpha virt. eigenvalues --    0.15188   0.16697   0.18002   0.19430   0.20147
 Alpha virt. eigenvalues --    0.22162   0.23320   0.23658   0.24313   0.24455
 Alpha virt. eigenvalues --    0.27110   0.27332   0.28074   0.32516   0.32748
 Alpha virt. eigenvalues --    0.35000   0.35284   0.38267   0.38440   0.38899
 Alpha virt. eigenvalues --    0.44578   0.44663   0.49745   0.49906   0.52132
 Alpha virt. eigenvalues --    0.52673   0.54299   0.66802   0.69805   0.72984
 Alpha virt. eigenvalues --    0.75036   0.76482   0.82678   0.85683   0.87405
 Alpha virt. eigenvalues --    0.90105   0.91820   0.92220   1.01065   1.05406
 Alpha virt. eigenvalues --    1.09394   1.13084   1.17799   1.17909   1.18471
 Alpha virt. eigenvalues --    1.23813   1.24025   1.29969   1.30719   1.32070
 Alpha virt. eigenvalues --    1.32624   1.35178   1.37745   1.39086   1.40987
 Alpha virt. eigenvalues --    1.44991   1.49990   1.55802   1.57413   1.58941
 Alpha virt. eigenvalues --    1.67265   1.76866   1.82477   1.83198   1.87832
 Alpha virt. eigenvalues --    1.89486   1.93263   1.95962   2.03444   2.05100
 Alpha virt. eigenvalues --    2.05317   2.10835   2.20541   2.22141   2.29933
 Alpha virt. eigenvalues --    2.33422   2.41311   2.51902   2.55680   2.60790
 Alpha virt. eigenvalues --    2.62462   2.63717   2.69647   2.71055   2.76826
 Alpha virt. eigenvalues --    2.79267   2.89891   2.97756   3.04630   3.07355
 Alpha virt. eigenvalues --    3.22314   3.37142   3.69481   3.70573   4.18009
 Alpha virt. eigenvalues --    4.44812   4.58922   4.65398   4.66686   4.89900
          Condensed to atoms (all electrons):
               1          2          3          4          5          6
     1  O    8.282527   0.565674  -0.108294  -0.079989  -0.079982  -0.108294
     2  C    0.565674   4.990849   0.270839  -0.208039  -0.208027   0.270844
     3  O   -0.108294   0.270839   8.115604   0.267117  -0.099337  -0.091361
     4  C   -0.079989  -0.208039   0.267117   4.968712   0.677545  -0.099325
     5  C   -0.079982  -0.208027  -0.099337   0.677545   4.968725   0.267099
     6  O   -0.108294   0.270844  -0.091361  -0.099325   0.267099   8.115604
     7  H    0.000297   0.016225  -0.032506   0.373744  -0.024725   0.003097
     8  H    0.000297   0.016225   0.003096  -0.024722   0.373742  -0.032505
     9  Li  -0.877947  -0.257948  -0.004197   0.076409   0.076425  -0.004202
               7          8          9
     1  O    0.000297   0.000297  -0.877947
     2  C    0.016225   0.016225  -0.257948
     3  O   -0.032506   0.003096  -0.004197
     4  C    0.373744  -0.024722   0.076409
     5  C   -0.024725   0.373742   0.076425
     6  O    0.003097  -0.032505  -0.004202
     7  H    0.378531   0.000071   0.000250
     8  H    0.000071   0.378529   0.000250
     9  Li   0.000250   0.000250   3.965232
 Mulliken charges:
               1
     1  O    0.405712
     2  C    0.543359
     3  O   -0.320961
     4  C    0.048548
     5  C    0.048536
     6  O   -0.320957
     7  H    0.285017
     8  H    0.285017
     9  Li   0.025729
 Sum of Mulliken charges =   1.00000
 Mulliken charges with hydrogens summed into heavy atoms:
               1
     1  O    0.405712
     2  C    0.543359
     3  O   -0.320961
     4  C    0.333565
     5  C    0.333553
     6  O   -0.320957
     9  Li   0.025729
 Electronic spatial extent (au):  <R**2>=            465.6518
 Charge=              1.0000 electrons
 Dipole moment (field-independent basis, Debye):
    X=              3.3524    Y=              0.0000    Z=              0.0080  Tot=              3.3524
 Quadrupole moment (field-independent basis, Debye-Ang):
   XX=              2.9446   YY=            -31.6225   ZZ=            -33.0931
   XY=              0.0000   XZ=             -0.0047   YZ=             -0.0115
 Traceless Quadrupole moment (field-independent basis, Debye-Ang):
   XX=             23.5349   YY=            -11.0322   ZZ=            -12.5028
   XY=              0.0000   XZ=             -0.0047   YZ=             -0.0115
 Octapole moment (field-independent basis, Debye-Ang**2):
  XXX=             64.0147  YYY=              0.0001  ZZZ=             -0.0121  XYY=             -4.6588
  XXY=              0.0000  XXZ=              0.0175  XZZ=              7.4105  YZZ=              0.0000
  YYZ=              0.0028  XYZ=              0.0228
 Hexadecapole moment (field-independent basis, Debye-Ang**3):
 XXXX=            -67.9808 YYYY=           -141.6113 ZZZZ=            -32.6030 XXXY=              0.0000
 XXXZ=             -0.0286 YYYX=              0.0000 YYYZ=             -0.0110 ZZZX=              0.0212
 ZZZY=              0.0068 XXYY=            -63.0118 XXZZ=            -71.2725 YYZZ=            -29.9162
 XXYZ=             -0.0475 YYXZ=             -0.0039 ZZXY=              0.0000
 N-N= 2.614329751041D+02 E-N=-1.329967896903D+03  KE= 3.474251276869D+02
 No NMR shielding tensors so no spin-rotation constants.
 Leave Link  601 at Mon May 16 17:16:58 2022, MaxMem=  2147483648 cpu:         1.1
 (Enter /gpfs/runtime/opt/gaussian/g09-D01/g09/l701.exe)
 Compute integral first derivatives.
 ... and contract with generalized density number  0.
 R6Disp: Adding Grimme-D3 dispersion energy 1st derivatives to the gradient.
 D1PCM: PCM CHGder 1st derivatives, ID1Alg=3 FixD1E=F DoIter=F DoCFld=F I1PDM=0.
 GePol: Maximum number of non-zero 1st derivatives   =     316
 Leave Link  701 at Mon May 16 17:16:59 2022, MaxMem=  2147483648 cpu:         2.7
 (Enter /gpfs/runtime/opt/gaussian/g09-D01/g09/l702.exe)
 L702 exits ... SP integral derivatives will be done elsewhere.
 Leave Link  702 at Mon May 16 17:16:59 2022, MaxMem=  2147483648 cpu:         0.1
 (Enter /gpfs/runtime/opt/gaussian/g09-D01/g09/l703.exe)
 Compute integral first derivatives, UseDBF=F ICtDFT=           0.
 Integral derivatives from FoFJK, PRISM(SPDF).
 Calling FoFJK, ICntrl=      2127 FMM=F ISym2X=0 I1Cent= 0 IOpClX= 0 NMat=1 NMatS=1 NMatT=0.
 FoFJK:  IHMeth= 1 ICntrl=    2127 DoSepK=F KAlg= 0 I1Cent=   0 FoldK=F
 IRaf=         0 NMat=   1 IRICut=       1 DoRegI=T DoRafI=F ISym2E= 0.
 FoFCou: FMM=F IPFlag=           0 FMFlag=      100000 FMFlg1=         800
         NFxFlg=           0 DoJE=F BraDBF=F KetDBF=F FulRan=T
         wScrn=  0.000000 ICntrl=    2127 IOpCl=  0 I1Cent=           0 NGrid=           0
         NMat0=    1 NMatS0=      1 NMatT0=    0 NMatD0=    1 NMtDS0=    0 NMtDT0=    0
 Symmetry not used in FoFCou.
 Leave Link  703 at Mon May 16 17:17:00 2022, MaxMem=  2147483648 cpu:         8.5
 (Enter /gpfs/runtime/opt/gaussian/g09-D01/g09/l716.exe)
 Dipole        = 1.31892564D+00 6.83918452D-06 3.16292759D-03
 ***** Axes restored to original set *****
 -------------------------------------------------------------------
 Center     Atomic                   Forces (Hartrees/Bohr)
 Number     Number              X              Y              Z
 -------------------------------------------------------------------
      1        8           1.019792408    0.000000372   -0.000560934
      2        6           0.116152000   -0.000001531    0.000943103
      3        8          -0.038670611   -0.003495119   -0.000235990
      4        6           0.023529112   -0.009503019   -0.000231181
      5        6           0.023526754    0.009501122    0.000484913
      6        8          -0.038668016    0.003497632   -0.000837715
      7        1          -0.009285017    0.011489077   -0.000059373
      8        1          -0.009285527   -0.011488482    0.000046223
      9        3          -1.087091102   -0.000000050    0.000450953
 -------------------------------------------------------------------
 Cartesian Forces:  Max     1.087091102 RMS     0.288031413
 Leave Link  716 at Mon May 16 17:17:00 2022, MaxMem=  2147483648 cpu:         0.2
 (Enter /gpfs/runtime/opt/gaussian/g09-D01/g09/l103.exe)

 GradGradGradGradGradGradGradGradGradGradGradGradGradGradGradGradGradGrad
 Berny optimization.
 FormGI is forming the generalized inverse of G from B-inverse, IUseBI=4.
 Internal  Forces:  Max     0.702294596 RMS     0.141929032
 Search for a local minimum.
 Step number   1 out of a maximum of   47
 All quantities printed in internal units (Hartrees-Bohrs-Radians)
 RMS Force = .14193D+00 SwitMx=.10000D-02 MixMth= 1
 Mixed Optimization -- RFO/linear search
 Second derivative matrix not updated -- first step.
 ITU=  0
     Eigenvalues ---    0.02373   0.02450   0.02450   0.02644   0.02756
     Eigenvalues ---    0.02902   0.16000   0.16000   0.22586   0.24759
     Eigenvalues ---    0.25000   0.25000   0.35990   0.35990   0.48157
     Eigenvalues ---    0.48652   0.48855   0.54282   0.56009   0.59603
     Eigenvalues ---    2.53945
 RFO step:  Lambda=-2.90919782D-01 EMin= 2.37314485D-02
 Linear search not attempted -- first point.
 Maximum step size (   0.300) exceeded in Quadratic search.
    -- Step size scaled by   0.801
 Iteration  1 RMS(Cart)=  0.03092629 RMS(Int)=  0.00155081
 Iteration  2 RMS(Cart)=  0.00090757 RMS(Int)=  0.00001531
 Iteration  3 RMS(Cart)=  0.00000000 RMS(Int)=  0.00001531
 ITry= 1 IFail=0 DXMaxC= 1.56D-01 DCOld= 1.00D+10 DXMaxT= 3.00D-01 DXLimC= 3.00D+00 Rises=F
 Variable       Old X    -DE/DX   Delta X   Delta X   Delta X     New X
                                 (Linear)    (Quad)   (Total)
    R1        2.29734  -0.31750   0.00000  -0.01241  -0.01241   2.28493
    R2        1.87631   0.70229   0.00000   0.21142   0.21142   2.08773
    R3        2.53737  -0.02316   0.00000  -0.02349  -0.02347   2.51390
    R4        2.53738  -0.02316   0.00000  -0.02349  -0.02347   2.51390
    R5        4.17365   0.38480   0.00000   0.19901   0.19901   4.37266
    R6        2.56151   0.01583   0.00000   0.01602   0.01601   2.57752
    R7        2.50087   0.00934   0.00000   0.01046   0.01043   2.51130
    R8        2.04097  -0.00078   0.00000  -0.00096  -0.00096   2.04000
    R9        2.56152   0.01582   0.00000   0.01601   0.01601   2.57753
   R10        2.04097  -0.00078   0.00000  -0.00096  -0.00096   2.04000
    A1        2.20111  -0.00810   0.00000  -0.01011  -0.01012   2.19099
    A2        2.20111  -0.00810   0.00000  -0.01010  -0.01012   2.19099
    A3        1.88095   0.01620   0.00000   0.02022   0.02025   1.90120
    A4        2.20111  -0.00810   0.00000  -0.01011  -0.01012   2.19099
    A5        2.20111  -0.00810   0.00000  -0.01011  -0.01012   2.19099
    A6        1.88375  -0.00144   0.00000  -0.00432  -0.00430   1.87945
    A7        1.88816  -0.00666   0.00000  -0.00579  -0.00582   1.88234
    A8        2.19754  -0.01172   0.00000  -0.02385  -0.02383   2.17371
    A9        2.19748   0.01838   0.00000   0.02964   0.02966   2.22714
   A10        1.88815  -0.00666   0.00000  -0.00579  -0.00582   1.88233
   A11        2.19748   0.01838   0.00000   0.02964   0.02966   2.22714
   A12        2.19754  -0.01172   0.00000  -0.02385  -0.02383   2.17371
   A13        1.88374  -0.00144   0.00000  -0.00431  -0.00429   1.87944
    D1        3.14123   0.00027   0.00000   0.00057   0.00057  -3.14139
    D2        0.00424  -0.00024   0.00000  -0.00064  -0.00064   0.00360
    D3        3.14114   0.00001   0.00000   0.00013   0.00013   3.14127
    D4        3.13939  -0.00014   0.00000  -0.00023  -0.00023   3.13916
    D5       -0.00681   0.00037   0.00000   0.00099   0.00099  -0.00582
    D6        3.13948   0.00012   0.00000   0.00021   0.00021   3.13969
    D7        0.00001   0.00005   0.00000   0.00009   0.00008   0.00009
    D8        3.14103   0.00008   0.00000   0.00015   0.00014   3.14118
    D9       -0.00422   0.00025   0.00000   0.00059   0.00059  -0.00363
   D10        3.14102   0.00000   0.00000  -0.00003  -0.00004   3.14099
   D11        3.13794   0.00023   0.00000   0.00055   0.00055   3.13849
   D12        0.00000  -0.00002   0.00000  -0.00007  -0.00008  -0.00008
   D13        0.00686  -0.00042   0.00000  -0.00103  -0.00102   0.00584
   D14       -3.13838  -0.00009   0.00000  -0.00026  -0.00028  -3.13866
         Item               Value     Threshold  Converged?
 Maximum Force            0.702295     0.000450     NO 
 RMS     Force            0.141929     0.000300     NO 
 Maximum Displacement     0.155903     0.001800     NO 
 RMS     Displacement     0.031578     0.001200     NO 
 Predicted change in Energy=-1.528034D-01
 Lowest energy point so far.  Saving SCF results.
 GradGradGradGradGradGradGradGradGradGradGradGradGradGradGradGradGradGrad

 Leave Link  103 at Mon May 16 17:17:00 2022, MaxMem=  2147483648 cpu:         0.1
 (Enter /gpfs/runtime/opt/gaussian/g09-D01/g09/l202.exe)
                          Input orientation:                          
 ---------------------------------------------------------------------
 Center     Atomic      Atomic             Coordinates (Angstroms)
 Number     Number       Type             X           Y           Z
 ---------------------------------------------------------------------
      1          8           0       -1.904223    0.000000   -0.001021
      2          6           0       -0.695090    0.000001   -0.000837
      3          8           0        0.078072    1.082549    0.000879
      4          6           0        1.376379    0.664460    0.000189
      5          6           0        1.376378   -0.664460   -0.002050
      6          8           0        0.078072   -1.082548    0.001945
      7          1           0        2.231607    1.323212    0.000858
      8          1           0        2.231605   -1.323212   -0.003670
      9          3           0       -3.009000   -0.000002   -0.000192
 ---------------------------------------------------------------------
                    Distance matrix (angstroms):
                    1          2          3          4          5
     1  O    0.000000
     2  C    1.209133   0.000000
     3  O    2.258630   1.330299   0.000000
     4  C    3.347216   2.175429   1.363964   0.000000
     5  C    3.347216   2.175429   2.176613   1.328921   0.000000
     6  O    2.258631   1.330301   2.165098   2.176612   1.363969
     7  H    4.342347   3.211923   2.166940   1.079523   2.163853
     8  H    4.342347   3.211922   3.228841   2.163855   1.079523
     9  Li   1.104777   2.313910   3.271381   4.435432   4.435431
                    6          7          8          9
     6  O    0.000000
     7  H    3.228838   0.000000
     8  H    2.166946   2.646427   0.000000
     9  Li   3.271380   5.405077   5.405076   0.000000
 Stoichiometry    C3H2LiO3(1+)
 Framework group  C1[X(C3H2LiO3)]
 Deg. of freedom    21
 Full point group                 C1      NOp   1
 RotChk:  IX=2 Diff= 2.92D-04
 Largest Abelian subgroup         C1      NOp   1
 Largest concise Abelian subgroup C1      NOp   1
                         Standard orientation:                         
 ---------------------------------------------------------------------
 Center     Atomic      Atomic             Coordinates (Angstroms)
 Number     Number       Type             X           Y           Z
 ---------------------------------------------------------------------
      1          8           0        1.772257    0.000000    0.000907
      2          6           0        0.563124    0.000000    0.000726
      3          8           0       -0.210039    1.082549   -0.000765
      4          6           0       -1.508345    0.664459   -0.000158
      5          6           0       -1.508344   -0.664460    0.001807
      6          8           0       -0.210038   -1.082548   -0.002277
      7          1           0       -2.363574    1.323211   -0.000689
      8          1           0       -2.363571   -1.323213    0.003292
      9          3           0        2.877034   -0.000001    0.000076
 ---------------------------------------------------------------------
 Rotational constants (GHZ):      9.7913659      2.8269839      2.1936365
 Leave Link  202 at Mon May 16 17:17:00 2022, MaxMem=  2147483648 cpu:         0.2
 (Enter /gpfs/runtime/opt/gaussian/g09-D01/g09/l301.exe)
 Standard basis: 6-31+G(d,p) (6D, 7F)
 Ernie: Thresh=  0.10000D-02 Tol=  0.10000D-05 Strict=F.
 There are   143 symmetry adapted cartesian basis functions of A   symmetry.
 There are   143 symmetry adapted basis functions of A   symmetry.
   143 basis functions,   238 primitive gaussians,   143 cartesian basis functions
    23 alpha electrons       23 beta electrons
       nuclear repulsion energy       260.1700309408 Hartrees.
 IExCor= 4336 DFT=T Ex+Corr=M062X ExCW=0 ScaHFX=  0.540000
 ScaDFX=  1.000000  1.000000  1.000000  1.000000 ScalE2=  1.000000  1.000000
 IRadAn=      0 IRanWt=     -1 IRanGd=            0 ICorTp=0 IEmpDi=131
 NAtoms=    9 NActive=    9 NUniq=    9 SFac= 1.00D+00 NAtFMM=   60 NAOKFM=F Big=F
 Integral buffers will be    131072 words long.
 Raffenetti 2 integral format.
 Two-electron integral symmetry is turned on.
 R6Disp:  Grimme-D3 Dispersion energy=       -0.0000659695 Hartrees.
 Nuclear repulsion after empirical dispersion term =      260.1699649713 Hartrees.
 ------------------------------------------------------------------------------
 Polarizable Continuum Model (PCM)
 =================================
 Model                : PCM (using non-symmetric T matrix).
 Atomic radii         : SMD-Coulomb.
 Polarization charges : Total charges.
 Charge compensation  : None.
 Solution method      : On-the-fly selection.
 Cavity type          : VdW (van der Waals Surface) (Alpha=1.000).
 Cavity algorithm     : GePol (No added spheres)
                        Default sphere list used, NSphG=    9.
                        Lebedev-Laikov grids with approx.  5.0 points / Ang**2.
                        Smoothing algorithm: Karplus/York (Gamma=1.0000).
                        Polarization charges: spherical gaussians, with
                                              point-specific exponents (IZeta= 3).
                        Self-potential: point-specific (ISelfS= 7).
                        Self-field    : sphere-specific E.n sum rule (ISelfD= 2).
 1st derivatives      : Analytical E(r).r(x)/FMM algorithm (CHGder, D1EAlg=3).
                        Cavity 1st derivative terms included.
 Solvent              : DiMethylSulfoxide, Eps=  46.826000 Eps(inf)=   2.007889
 ------------------------------------------------------------------------------
 Spheres list:
 ISph  on   Nord     Re0    Alpha      Xe            Ye            Ze
    1   O      1    2.2940  1.000      1.772257      0.000000      0.000907
    2   C      2    1.8500  1.000      0.563124      0.000000      0.000726
    3   O      3    2.2940  1.000     -0.210039      1.082549     -0.000765
    4   C      4    1.8500  1.000     -1.508345      0.664459     -0.000158
    5   C      5    1.8500  1.000     -1.508344     -0.664460      0.001807
    6   O      6    2.2940  1.000     -0.210038     -1.082548     -0.002277
    7   H      7    1.2000  1.000     -2.363574      1.323211     -0.000689
    8   H      8    1.2000  1.000     -2.363571     -1.323213      0.003292
    9  Li      9    1.8200  1.000      2.877034     -0.000001      0.000076
 ------------------------------------------------------------------------------
 GePol: Number of generator spheres                  =       9
 GePol: Total number of spheres                      =       9
 GePol: Number of exposed spheres                    =       9 (100.00%)
 GePol: Number of points                             =    1082
 GePol: Average weight of points                     =       0.12
 GePol: Minimum weight of points                     =   0.71D-06
 GePol: Maximum weight of points                     =    0.17992
 GePol: Number of points with low weight             =      31
 GePol: Fraction of low-weight points (<1% of avg)   =       2.87%
 GePol: Cavity surface area                          =    133.602 Ang**2
 GePol: Cavity volume                                =    126.830 Ang**3
 ------------------------------------------------------------------------------
 Atomic radii for non-electrostatic terms: SMD-CDS.
 ------------------------------------------------------------------------------
 PCM non-electrostatic energy =         0.0035274702 Hartrees.
 Nuclear repulsion after PCM non-electrostatic terms =      260.1734924415 Hartrees.
 Leave Link  301 at Mon May 16 17:17:00 2022, MaxMem=  2147483648 cpu:         0.4
 (Enter /gpfs/runtime/opt/gaussian/g09-D01/g09/l302.exe)
 NPDir=0 NMtPBC=     1 NCelOv=     1 NCel=       1 NClECP=     1 NCelD=      1
         NCelK=      1 NCelE2=     1 NClLst=     1 CellRange=     0.0.
 One-electron integrals computed using PRISM.
 NBasis=   143 RedAO= T EigKep=  7.61D-05  NBF=   143
 NBsUse=   143 1.00D-06 EigRej= -1.00D+00 NBFU=   143
 Precomputing XC quadrature grid using
 IXCGrd= 4 IRadAn=           0 IRanWt=          -1 IRanGd=           0 AccXCQ= 0.00D+00.
 Generated NRdTot=       0 NPtTot=           0 NUsed=           0 NTot=          32
 NSgBfM=   143   143   143   143   143 MxSgAt=     9 MxSgA2=     9.
 Leave Link  302 at Mon May 16 17:17:00 2022, MaxMem=  2147483648 cpu:         2.0
 (Enter /gpfs/runtime/opt/gaussian/g09-D01/g09/l303.exe)
 DipDrv:  MaxL=1.
 Leave Link  303 at Mon May 16 17:17:01 2022, MaxMem=  2147483648 cpu:         0.7
 (Enter /gpfs/runtime/opt/gaussian/g09-D01/g09/l401.exe)
 Initial guess from the checkpoint file:  "/gpfs/data/yqi27/cgu13/CHEM1560Q/Gaussian/872-36-6/inp4/Gau-240761.chk"
 B after Tr=     0.000000    0.000000    0.000000
         Rot=    1.000000   -0.000054    0.000007    0.000000 Ang=  -0.01 deg.
 Guess basis will be translated and rotated to current coordinates.
 JPrj=2 DoOrth=T DoCkMO=T.
 Generating alternative initial guess.
 ExpMin= 7.40D-03 ExpMax= 5.48D+03 ExpMxC= 8.25D+02 IAcc=3 IRadAn=         5 AccDes= 0.00D+00
 Harris functional with IExCor= 1009 and IRadAn=       5 diagonalized for initial guess.
 HarFok:  IExCor= 1009 AccDes= 0.00D+00 IRadAn=         5 IDoV= 1 UseB2=F ITyADJ=14
 ICtDFT=  3500011 ScaDFX=  1.000000  1.000000  1.000000  1.000000
 FoFCou: FMM=F IPFlag=           0 FMFlag=      100000 FMFlg1=           0
         NFxFlg=           0 DoJE=T BraDBF=F KetDBF=T FulRan=T
         wScrn=  0.000000 ICntrl=     500 IOpCl=  0 I1Cent=   200000004 NGrid=           0
         NMat0=    1 NMatS0=      1 NMatT0=    0 NMatD0=    1 NMtDS0=    0 NMtDT0=    0
 Petite list used in FoFCou.
 Harris En= -348.073625363876    
 Leave Link  401 at Mon May 16 17:17:01 2022, MaxMem=  2147483648 cpu:         3.3
 (Enter /gpfs/runtime/opt/gaussian/g09-D01/g09/l502.exe)
 Closed shell SCF:
 Using DIIS extrapolation, IDIIS=  1040.
 Integral symmetry usage will be decided dynamically.
 Keep R1 ints in memory in canonical form, NReq=57376215.
 IVT=       82101 IEndB=       82101 NGot=  2147483648 MDV=  2094392592
 LenX=  2094392592 LenY=  2094371702
 Requested convergence on RMS density matrix=1.00D-08 within 128 cycles.
 Requested convergence on MAX density matrix=1.00D-06.
 Requested convergence on             energy=1.00D-06.
 No special actions if energy rises.
 FoFCou: FMM=F IPFlag=           0 FMFlag=           0 FMFlg1=           0
         NFxFlg=           0 DoJE=F BraDBF=F KetDBF=F FulRan=T
         wScrn=  0.000000 ICntrl=     600 IOpCl=  0 I1Cent=           0 NGrid=           0
         NMat0=    1 NMatS0=  10296 NMatT0=    0 NMatD0=    1 NMtDS0=    0 NMtDT0=    0
 Symmetry not used in FoFCou.

 Cycle   1  Pass 1  IDiag  1:
 Inv3:  Mode=1 IEnd=     3512172.
 Iteration    1 A*A^-1 deviation from unit magnitude is 4.66D-15 for    675.
 Iteration    1 A*A^-1 deviation from orthogonality  is 4.13D-15 for    798     55.
 Iteration    1 A^-1*A deviation from unit magnitude is 5.11D-15 for    203.
 Iteration    1 A^-1*A deviation from orthogonality  is 2.13D-13 for    979    933.
 E= -348.256375279909    
 DIIS: error= 9.03D-03 at cycle   1 NSaved=   1.
 NSaved= 1 IEnMin= 1 EnMin= -348.256375279909     IErMin= 1 ErrMin= 9.03D-03
 ErrMax= 9.03D-03  0.00D+00 EMaxC= 1.00D-01 BMatC= 1.18D-02 BMatP= 1.18D-02
 IDIUse=3 WtCom= 9.10D-01 WtEn= 9.03D-02
 Coeff-Com:  0.100D+01
 Coeff-En:   0.100D+01
 Coeff:      0.100D+01
 Gap=     0.569 Goal=   None    Shift=    0.000
 GapD=    0.569 DampG=2.000 DampE=1.000 DampFc=2.0000 IDamp=-1.
 RMSDP=7.93D-03 MaxDP=4.75D-01              OVMax= 3.45D-02

 Cycle   2  Pass 1  IDiag  1:
 E= -348.266530440219     Delta-E=       -0.010155160310 Rises=F Damp=F
 DIIS: error= 4.00D-03 at cycle   2 NSaved=   2.
 NSaved= 2 IEnMin= 2 EnMin= -348.266530440219     IErMin= 2 ErrMin= 4.00D-03
 ErrMax= 4.00D-03  0.00D+00 EMaxC= 1.00D-01 BMatC= 1.76D-03 BMatP= 1.18D-02
 IDIUse=3 WtCom= 9.60D-01 WtEn= 4.00D-02
 Coeff-Com:  0.154D+00 0.846D+00
 Coeff-En:   0.000D+00 0.100D+01
 Coeff:      0.148D+00 0.852D+00
 Gap=     0.323 Goal=   None    Shift=    0.000
 RMSDP=7.08D-04 MaxDP=2.09D-02 DE=-1.02D-02 OVMax= 1.68D-02

 Cycle   3  Pass 1  IDiag  1:
 E= -348.266884716220     Delta-E=       -0.000354276002 Rises=F Damp=F
 DIIS: error= 3.03D-03 at cycle   3 NSaved=   3.
 NSaved= 3 IEnMin= 3 EnMin= -348.266884716220     IErMin= 3 ErrMin= 3.03D-03
 ErrMax= 3.03D-03  0.00D+00 EMaxC= 1.00D-01 BMatC= 1.41D-03 BMatP= 1.76D-03
 IDIUse=3 WtCom= 9.70D-01 WtEn= 3.03D-02
 Coeff-Com: -0.434D-01 0.478D+00 0.565D+00
 Coeff-En:   0.000D+00 0.422D+00 0.578D+00
 Coeff:     -0.421D-01 0.477D+00 0.565D+00
 Gap=     0.323 Goal=   None    Shift=    0.000
 RMSDP=2.48D-04 MaxDP=8.46D-03 DE=-3.54D-04 OVMax= 1.00D-02

 Cycle   4  Pass 1  IDiag  1:
 E= -348.267867620239     Delta-E=       -0.000982904019 Rises=F Damp=F
 DIIS: error= 2.13D-04 at cycle   4 NSaved=   4.
 NSaved= 4 IEnMin= 4 EnMin= -348.267867620239     IErMin= 4 ErrMin= 2.13D-04
 ErrMax= 2.13D-04  0.00D+00 EMaxC= 1.00D-01 BMatC= 1.05D-05 BMatP= 1.41D-03
 IDIUse=3 WtCom= 9.98D-01 WtEn= 2.13D-03
 Coeff-Com: -0.138D-01 0.926D-01 0.142D+00 0.779D+00
 Coeff-En:   0.000D+00 0.000D+00 0.000D+00 0.100D+01
 Coeff:     -0.138D-01 0.924D-01 0.141D+00 0.780D+00
 Gap=     0.323 Goal=   None    Shift=    0.000
 RMSDP=3.89D-05 MaxDP=1.06D-03 DE=-9.83D-04 OVMax= 8.67D-04

 Cycle   5  Pass 1  IDiag  1:
 E= -348.267875083077     Delta-E=       -0.000007462838 Rises=F Damp=F
 DIIS: error= 1.55D-04 at cycle   5 NSaved=   5.
 NSaved= 5 IEnMin= 5 EnMin= -348.267875083077     IErMin= 5 ErrMin= 1.55D-04
 ErrMax= 1.55D-04  0.00D+00 EMaxC= 1.00D-01 BMatC= 3.03D-06 BMatP= 1.05D-05
 IDIUse=3 WtCom= 9.98D-01 WtEn= 1.55D-03
 Coeff-Com: -0.344D-03-0.211D-01-0.640D-02 0.352D+00 0.675D+00
 Coeff-En:   0.000D+00 0.000D+00 0.000D+00 0.000D+00 0.100D+01
 Coeff:     -0.343D-03-0.211D-01-0.639D-02 0.352D+00 0.676D+00
 Gap=     0.323 Goal=   None    Shift=    0.000
 RMSDP=1.95D-05 MaxDP=5.32D-04 DE=-7.46D-06 OVMax= 8.00D-04

 Cycle   6  Pass 1  IDiag  1:
 E= -348.267877807824     Delta-E=       -0.000002724747 Rises=F Damp=F
 DIIS: error= 3.10D-05 at cycle   6 NSaved=   6.
 NSaved= 6 IEnMin= 6 EnMin= -348.267877807824     IErMin= 6 ErrMin= 3.10D-05
 ErrMax= 3.10D-05  0.00D+00 EMaxC= 1.00D-01 BMatC= 2.18D-07 BMatP= 3.03D-06
 IDIUse=1 WtCom= 1.00D+00 WtEn= 0.00D+00
 Coeff-Com:  0.178D-02-0.176D-01-0.178D-01-0.477D-01 0.167D+00 0.914D+00
 Coeff:      0.178D-02-0.176D-01-0.178D-01-0.477D-01 0.167D+00 0.914D+00
 Gap=     0.323 Goal=   None    Shift=    0.000
 RMSDP=9.01D-06 MaxDP=3.50D-04 DE=-2.72D-06 OVMax= 2.37D-04

 Cycle   7  Pass 1  IDiag  1:
 E= -348.267878062990     Delta-E=       -0.000000255166 Rises=F Damp=F
 DIIS: error= 5.38D-06 at cycle   7 NSaved=   7.
 NSaved= 7 IEnMin= 7 EnMin= -348.267878062990     IErMin= 7 ErrMin= 5.38D-06
 ErrMax= 5.38D-06  0.00D+00 EMaxC= 1.00D-01 BMatC= 7.24D-09 BMatP= 2.18D-07
 IDIUse=1 WtCom= 1.00D+00 WtEn= 0.00D+00
 Coeff-Com:  0.882D-04 0.761D-05 0.513D-03-0.194D-01-0.762D-02 0.496D-02
 Coeff-Com:  0.102D+01
 Coeff:      0.882D-04 0.761D-05 0.513D-03-0.194D-01-0.762D-02 0.496D-02
 Coeff:      0.102D+01
 Gap=     0.323 Goal=   None    Shift=    0.000
 RMSDP=1.62D-06 MaxDP=4.98D-05 DE=-2.55D-07 OVMax= 6.53D-05

 Cycle   8  Pass 1  IDiag  1:
 E= -348.267878075060     Delta-E=       -0.000000012070 Rises=F Damp=F
 DIIS: error= 3.24D-06 at cycle   8 NSaved=   8.
 NSaved= 8 IEnMin= 8 EnMin= -348.267878075060     IErMin= 8 ErrMin= 3.24D-06
 ErrMax= 3.24D-06  0.00D+00 EMaxC= 1.00D-01 BMatC= 1.13D-09 BMatP= 7.24D-09
 IDIUse=1 WtCom= 1.00D+00 WtEn= 0.00D+00
 Coeff-Com: -0.126D-03 0.153D-02 0.188D-02-0.213D-02-0.139D-01-0.882D-01
 Coeff-Com:  0.335D+00 0.766D+00
 Coeff:     -0.126D-03 0.153D-02 0.188D-02-0.213D-02-0.139D-01-0.882D-01
 Coeff:      0.335D+00 0.766D+00
 Gap=     0.323 Goal=   None    Shift=    0.000
 RMSDP=4.70D-07 MaxDP=1.83D-05 DE=-1.21D-08 OVMax= 3.04D-05

 Cycle   9  Pass 1  IDiag  1:
 E= -348.267878076624     Delta-E=       -0.000000001564 Rises=F Damp=F
 DIIS: error= 1.13D-06 at cycle   9 NSaved=   9.
 NSaved= 9 IEnMin= 9 EnMin= -348.267878076624     IErMin= 9 ErrMin= 1.13D-06
 ErrMax= 1.13D-06  0.00D+00 EMaxC= 1.00D-01 BMatC= 1.19D-10 BMatP= 1.13D-09
 IDIUse=1 WtCom= 1.00D+00 WtEn= 0.00D+00
 Coeff-Com: -0.463D-04 0.419D-03 0.457D-03 0.162D-02-0.155D-02-0.260D-01
 Coeff-Com: -0.542D-01 0.207D+00 0.872D+00
 Coeff:     -0.463D-04 0.419D-03 0.457D-03 0.162D-02-0.155D-02-0.260D-01
 Coeff:     -0.542D-01 0.207D+00 0.872D+00
 Gap=     0.323 Goal=   None    Shift=    0.000
 RMSDP=1.63D-07 MaxDP=3.21D-06 DE=-1.56D-09 OVMax= 6.76D-06

 Cycle  10  Pass 1  IDiag  1:
 E= -348.267878076790     Delta-E=       -0.000000000166 Rises=F Damp=F
 DIIS: error= 1.30D-07 at cycle  10 NSaved=  10.
 NSaved=10 IEnMin=10 EnMin= -348.267878076790     IErMin=10 ErrMin= 1.30D-07
 ErrMax= 1.30D-07  0.00D+00 EMaxC= 1.00D-01 BMatC= 3.65D-12 BMatP= 1.19D-10
 IDIUse=1 WtCom= 1.00D+00 WtEn= 0.00D+00
 Coeff-Com:  0.930D-06-0.310D-04-0.528D-04 0.326D-03 0.101D-02 0.785D-03
 Coeff-Com: -0.292D-01-0.504D-02 0.142D+00 0.890D+00
 Coeff:      0.930D-06-0.310D-04-0.528D-04 0.326D-03 0.101D-02 0.785D-03
 Coeff:     -0.292D-01-0.504D-02 0.142D+00 0.890D+00
 Gap=     0.323 Goal=   None    Shift=    0.000
 RMSDP=2.87D-08 MaxDP=6.25D-07 DE=-1.66D-10 OVMax= 1.65D-06

 Cycle  11  Pass 1  IDiag  1:
 E= -348.267878076796     Delta-E=       -0.000000000007 Rises=F Damp=F
 DIIS: error= 5.02D-08 at cycle  11 NSaved=  11.
 NSaved=11 IEnMin=11 EnMin= -348.267878076796     IErMin=11 ErrMin= 5.02D-08
 ErrMax= 5.02D-08  0.00D+00 EMaxC= 1.00D-01 BMatC= 3.50D-13 BMatP= 3.65D-12
 IDIUse=1 WtCom= 1.00D+00 WtEn= 0.00D+00
 Coeff-Com:  0.320D-05-0.338D-04-0.451D-04-0.458D-04 0.395D-03 0.177D-02
 Coeff-Com: -0.250D-02-0.154D-01-0.356D-01 0.211D+00 0.841D+00
 Coeff:      0.320D-05-0.338D-04-0.451D-04-0.458D-04 0.395D-03 0.177D-02
 Coeff:     -0.250D-02-0.154D-01-0.356D-01 0.211D+00 0.841D+00
 Gap=     0.323 Goal=   None    Shift=    0.000
 RMSDP=8.60D-09 MaxDP=4.45D-07 DE=-6.82D-12 OVMax= 3.09D-07

 Error on total polarization charges =  0.00924
 SCF Done:  E(RM062X) =  -348.267878077     A.U. after   11 cycles
            NFock= 11  Conv=0.86D-08     -V/T= 2.0039
 KE= 3.469105558407D+02 PE=-1.327576128241D+03 EE= 3.722242018817D+02
 SMD-CDS (non-electrostatic) energy       (kcal/mol) =       2.21
 (included in total energy above)
 Leave Link  502 at Mon May 16 17:17:07 2022, MaxMem=  2147483648 cpu:        40.2
 (Enter /gpfs/runtime/opt/gaussian/g09-D01/g09/l701.exe)
 Compute integral first derivatives.
 ... and contract with generalized density number  0.
 R6Disp: Adding Grimme-D3 dispersion energy 1st derivatives to the gradient.
 D1PCM: PCM CHGder 1st derivatives, ID1Alg=3 FixD1E=F DoIter=F DoCFld=F I1PDM=0.
 GePol: Maximum number of non-zero 1st derivatives   =     300
 Leave Link  701 at Mon May 16 17:17:07 2022, MaxMem=  2147483648 cpu:         3.3
 (Enter /gpfs/runtime/opt/gaussian/g09-D01/g09/l702.exe)
 L702 exits ... SP integral derivatives will be done elsewhere.
 Leave Link  702 at Mon May 16 17:17:07 2022, MaxMem=  2147483648 cpu:         0.1
 (Enter /gpfs/runtime/opt/gaussian/g09-D01/g09/l703.exe)
 Compute integral first derivatives, UseDBF=F ICtDFT=           0.
 Integral derivatives from FoFJK, PRISM(SPDF).
 Calling FoFJK, ICntrl=      2127 FMM=F ISym2X=0 I1Cent= 0 IOpClX= 0 NMat=1 NMatS=1 NMatT=0.
 FoFJK:  IHMeth= 1 ICntrl=    2127 DoSepK=F KAlg= 0 I1Cent=   0 FoldK=F
 IRaf=         0 NMat=   1 IRICut=       1 DoRegI=T DoRafI=F ISym2E= 0.
 FoFCou: FMM=F IPFlag=           0 FMFlag=      100000 FMFlg1=         800
         NFxFlg=           0 DoJE=F BraDBF=F KetDBF=F FulRan=T
         wScrn=  0.000000 ICntrl=    2127 IOpCl=  0 I1Cent=           0 NGrid=           0
         NMat0=    1 NMatS0=      1 NMatT0=    0 NMatD0=    1 NMtDS0=    0 NMtDT0=    0
 Symmetry not used in FoFCou.
 Leave Link  703 at Mon May 16 17:17:09 2022, MaxMem=  2147483648 cpu:         8.1
 (Enter /gpfs/runtime/opt/gaussian/g09-D01/g09/l716.exe)
 Dipole        = 1.57776730D+00 1.13552284D-06 1.95830264D-03
 ***** Axes restored to original set *****
 -------------------------------------------------------------------
 Center     Atomic                   Forces (Hartrees/Bohr)
 Number     Number              X              Y              Z
 -------------------------------------------------------------------
      1        8           0.599972732    0.000001334   -0.000567855
      2        6           0.079935710   -0.000001025    0.000710794
      3        8          -0.023389533    0.002971751   -0.000164037
      4        6           0.018722409   -0.013601461   -0.000205542
      5        6           0.018721017    0.013600530    0.000426757
      6        8          -0.023388586   -0.002970359   -0.000679765
      7        1          -0.007880428    0.009177339   -0.000051667
      8        1          -0.007880609   -0.009176914    0.000043554
      9        3          -0.654812711   -0.000001196    0.000487761
 -------------------------------------------------------------------
 Cartesian Forces:  Max     0.654812711 RMS     0.171875692
 Leave Link  716 at Mon May 16 17:17:09 2022, MaxMem=  2147483648 cpu:         0.1
 (Enter /gpfs/runtime/opt/gaussian/g09-D01/g09/l103.exe)

 GradGradGradGradGradGradGradGradGradGradGradGradGradGradGradGradGradGrad
 Berny optimization.
 Using GEDIIS/GDIIS optimizer.
 FormGI is forming the generalized inverse of G from B-inverse, IUseBI=4.
 Internal  Forces:  Max     0.418262111 RMS     0.084673427
 Search for a local minimum.
 Step number   2 out of a maximum of   47
 All quantities printed in internal units (Hartrees-Bohrs-Radians)
 RMS Force = .84673D-01 SwitMx=.10000D-02 MixMth= 1
 Mixed Optimization -- RFO/linear search
 Update second derivatives using D2CorX and points    1    2
 DE= -1.83D-01 DEPred=-1.53D-01 R= 1.20D+00
 TightC=F SS=  1.41D+00  RLast= 3.00D-01 DXNew= 5.0454D-01 9.0002D-01
 Trust test= 1.20D+00 RLast= 3.00D-01 DXMaxT set to 5.05D-01
 ITU=  1  0
 Use linear search instead of GDIIS.
 Linear search step of   0.600 exceeds DXMaxT=   0.505 but not scaled.
 Quartic linear search produced a step of  2.00000.
 Iteration  1 RMS(Cart)=  0.03858239 RMS(Int)=  0.04898384
 Iteration  2 RMS(Cart)=  0.03063854 RMS(Int)=  0.00251246
 Iteration  3 RMS(Cart)=  0.00153190 RMS(Int)=  0.00009001
 Iteration  4 RMS(Cart)=  0.00000000 RMS(Int)=  0.00009001
 ITry= 1 IFail=0 DXMaxC= 3.11D-01 DCOld= 1.00D+10 DXMaxT= 5.05D-01 DXLimC= 3.00D+00 Rises=F
 Variable       Old X    -DE/DX   Delta X   Delta X   Delta X     New X
                                 (Linear)    (Quad)   (Total)
    R1        2.28493  -0.18171  -0.02482   0.00000  -0.02482   2.26011
    R2        2.08773   0.41826   0.42284   0.00000   0.42284   2.51056
    R3        2.51390  -0.01077  -0.04694   0.00000  -0.04680   2.46710
    R4        2.51390  -0.01077  -0.04694   0.00000  -0.04680   2.46710
    R5        4.37266   0.23655   0.39801   0.00000   0.39801   4.77067
    R6        2.57752   0.01254   0.03202   0.00000   0.03197   2.60949
    R7        2.51130   0.00282   0.02086   0.00000   0.02069   2.53199
    R8        2.04000  -0.00064  -0.00193   0.00000  -0.00193   2.03808
    R9        2.57753   0.01254   0.03201   0.00000   0.03196   2.60949
   R10        2.04000  -0.00064  -0.00193   0.00000  -0.00193   2.03807
    A1        2.19099  -0.00449  -0.02024   0.00000  -0.02033   2.17066
    A2        2.19099  -0.00449  -0.02024   0.00000  -0.02033   2.17066
    A3        1.90120   0.00899   0.04049   0.00000   0.04066   1.94186
    A4        2.19099  -0.00449  -0.02024   0.00000  -0.02033   2.17066
    A5        2.19099  -0.00449  -0.02024   0.00000  -0.02033   2.17066
    A6        1.87945  -0.00145  -0.00860   0.00000  -0.00848   1.87097
    A7        1.88234  -0.00304  -0.01165   0.00000  -0.01185   1.87048
    A8        2.17371  -0.01080  -0.04767   0.00000  -0.04757   2.12614
    A9        2.22714   0.01384   0.05932   0.00000   0.05942   2.28656
   A10        1.88233  -0.00304  -0.01164   0.00000  -0.01185   1.87048
   A11        2.22714   0.01384   0.05932   0.00000   0.05942   2.28656
   A12        2.17371  -0.01080  -0.04767   0.00000  -0.04757   2.12614
   A13        1.87944  -0.00145  -0.00859   0.00000  -0.00847   1.87097
    D1       -3.14139   0.00033   0.00115   0.00000   0.00115  -3.14024
    D2        0.00360  -0.00020  -0.00129   0.00000  -0.00130   0.00230
    D3        3.14127  -0.00012   0.00027   0.00000   0.00027   3.14154
    D4        3.13916  -0.00021  -0.00046   0.00000  -0.00046   3.13870
    D5       -0.00582   0.00031   0.00198   0.00000   0.00199  -0.00383
    D6        3.13969   0.00024   0.00042   0.00000   0.00042   3.14011
    D7        0.00009   0.00002   0.00017   0.00000   0.00013   0.00023
    D8        3.14118   0.00005   0.00029   0.00000   0.00024   3.14142
    D9       -0.00363   0.00020   0.00118   0.00000   0.00116  -0.00247
   D10        3.14099   0.00000  -0.00008   0.00000  -0.00012   3.14087
   D11        3.13849   0.00018   0.00110   0.00000   0.00109   3.13958
   D12       -0.00008  -0.00002  -0.00016   0.00000  -0.00019  -0.00027
   D13        0.00584  -0.00033  -0.00204   0.00000  -0.00199   0.00385
   D14       -3.13866  -0.00009  -0.00055   0.00000  -0.00064  -3.13929
         Item               Value     Threshold  Converged?
 Maximum Force            0.418262     0.000450     NO 
 RMS     Force            0.084673     0.000300     NO 
 Maximum Displacement     0.311283     0.001800     NO 
 RMS     Displacement     0.062960     0.001200     NO 
 Predicted change in Energy=-9.561142D-02
 Lowest energy point so far.  Saving SCF results.
 GradGradGradGradGradGradGradGradGradGradGradGradGradGradGradGradGradGrad

 Leave Link  103 at Mon May 16 17:17:09 2022, MaxMem=  2147483648 cpu:         1.3
 (Enter /gpfs/runtime/opt/gaussian/g09-D01/g09/l202.exe)
                          Input orientation:                          
 ---------------------------------------------------------------------
 Center     Atomic      Atomic             Coordinates (Angstroms)
 Number     Number       Type             X           Y           Z
 ---------------------------------------------------------------------
      1          8           0       -1.845193    0.000002   -0.001463
      2          6           0       -0.649194    0.000001   -0.000314
      3          8           0        0.087821    1.077604    0.000877
      4          6           0        1.407154    0.669935    0.000171
      5          6           0        1.407152   -0.669934   -0.001745
      6          8           0        0.087821   -1.077600    0.001054
      7          1           0        2.220985    1.377641    0.000739
      8          1           0        2.220979   -1.377643   -0.003424
      9          3           0       -3.173724   -0.000006    0.000205
 ---------------------------------------------------------------------
                    Distance matrix (angstroms):
                    1          2          3          4          5
     1  O    0.000000
     2  C    1.195999   0.000000
     3  O    2.213091   1.305534   0.000000
     4  C    3.320629   2.162725   1.380882   0.000000
     5  C    3.320627   2.162724   2.189642   1.339870   0.000000
     6  O    2.213091   1.305533   2.155204   2.189639   1.380882
     7  H    4.293215   3.183680   2.154162   1.078503   2.203382
     8  H    4.293211   3.183678   3.252479   2.203383   1.078503
     9  Li   1.328533   2.524530   3.434955   4.629608   4.629604
                    6          7          8          9
     6  O    0.000000
     7  H    3.252476   0.000000
     8  H    2.154161   2.755287   0.000000
     9  Li   3.434950   5.567836   5.567829   0.000000
 Stoichiometry    C3H2LiO3(1+)
 Framework group  C1[X(C3H2LiO3)]
 Deg. of freedom    21
 Full point group                 C1      NOp   1
 RotChk:  IX=0 Diff= 3.16D-04
 Largest Abelian subgroup         C1      NOp   1
 Largest concise Abelian subgroup C1      NOp   1
                         Standard orientation:                         
 ---------------------------------------------------------------------
 Center     Atomic      Atomic             Coordinates (Angstroms)
 Number     Number       Type             X           Y           Z
 ---------------------------------------------------------------------
      1          8           0        1.729343    0.000002    0.001223
      2          6           0        0.533344    0.000001    0.000098
      3          8           0       -0.203671    1.077603   -0.000616
      4          6           0       -1.523005    0.669933   -0.000059
      5          6           0       -1.523002   -0.669937    0.001283
      6          8           0       -0.203670   -1.077600   -0.001718
      7          1           0       -2.336836    1.377639   -0.000306
      8          1           0       -2.336828   -1.377647    0.002674
      9          3           0        3.057874   -0.000004   -0.000471
 ---------------------------------------------------------------------
 Rotational constants (GHZ):      9.7668156      2.7434704      2.1418370
 Leave Link  202 at Mon May 16 17:17:09 2022, MaxMem=  2147483648 cpu:         0.2
 (Enter /gpfs/runtime/opt/gaussian/g09-D01/g09/l301.exe)
 Standard basis: 6-31+G(d,p) (6D, 7F)
 Ernie: Thresh=  0.10000D-02 Tol=  0.10000D-05 Strict=F.
 There are   143 symmetry adapted cartesian basis functions of A   symmetry.
 There are   143 symmetry adapted basis functions of A   symmetry.
   143 basis functions,   238 primitive gaussians,   143 cartesian basis functions
    23 alpha electrons       23 beta electrons
       nuclear repulsion energy       258.4685770020 Hartrees.
 IExCor= 4336 DFT=T Ex+Corr=M062X ExCW=0 ScaHFX=  0.540000
 ScaDFX=  1.000000  1.000000  1.000000  1.000000 ScalE2=  1.000000  1.000000
 IRadAn=      0 IRanWt=     -1 IRanGd=            0 ICorTp=0 IEmpDi=131
 NAtoms=    9 NActive=    9 NUniq=    9 SFac= 1.00D+00 NAtFMM=   60 NAOKFM=F Big=F
 Integral buffers will be    131072 words long.
 Raffenetti 2 integral format.
 Two-electron integral symmetry is turned on.
 R6Disp:  Grimme-D3 Dispersion energy=       -0.0000702114 Hartrees.
 Nuclear repulsion after empirical dispersion term =      258.4685067906 Hartrees.
 ------------------------------------------------------------------------------
 Polarizable Continuum Model (PCM)
 =================================
 Model                : PCM (using non-symmetric T matrix).
 Atomic radii         : SMD-Coulomb.
 Polarization charges : Total charges.
 Charge compensation  : None.
 Solution method      : On-the-fly selection.
 Cavity type          : VdW (van der Waals Surface) (Alpha=1.000).
 Cavity algorithm     : GePol (No added spheres)
                        Default sphere list used, NSphG=    9.
                        Lebedev-Laikov grids with approx.  5.0 points / Ang**2.
                        Smoothing algorithm: Karplus/York (Gamma=1.0000).
                        Polarization charges: spherical gaussians, with
                                              point-specific exponents (IZeta= 3).
                        Self-potential: point-specific (ISelfS= 7).
                        Self-field    : sphere-specific E.n sum rule (ISelfD= 2).
 1st derivatives      : Analytical E(r).r(x)/FMM algorithm (CHGder, D1EAlg=3).
                        Cavity 1st derivative terms included.
 Solvent              : DiMethylSulfoxide, Eps=  46.826000 Eps(inf)=   2.007889
 ------------------------------------------------------------------------------
 Spheres list:
 ISph  on   Nord     Re0    Alpha      Xe            Ye            Ze
    1   O      1    2.2940  1.000      1.729343      0.000002      0.001223
    2   C      2    1.8500  1.000      0.533344      0.000001      0.000098
    3   O      3    2.2940  1.000     -0.203671      1.077603     -0.000616
    4   C      4    1.8500  1.000     -1.523005      0.669933     -0.000059
    5   C      5    1.8500  1.000     -1.523002     -0.669937      0.001283
    6   O      6    2.2940  1.000     -0.203670     -1.077600     -0.001718
    7   H      7    1.2000  1.000     -2.336836      1.377639     -0.000306
    8   H      8    1.2000  1.000     -2.336828     -1.377647      0.002674
    9  Li      9    1.8200  1.000      3.057874     -0.000004     -0.000471
 ------------------------------------------------------------------------------
 GePol: Number of generator spheres                  =       9
 GePol: Total number of spheres                      =       9
 GePol: Number of exposed spheres                    =       9 (100.00%)
 GePol: Number of points                             =    1085
 GePol: Average weight of points                     =       0.12
 GePol: Minimum weight of points                     =   0.11D-05
 GePol: Maximum weight of points                     =    0.17992
 GePol: Number of points with low weight             =      38
 GePol: Fraction of low-weight points (<1% of avg)   =       3.50%
 GePol: Cavity surface area                          =    135.595 Ang**2
 GePol: Cavity volume                                =    128.696 Ang**3
 ------------------------------------------------------------------------------
 Atomic radii for non-electrostatic terms: SMD-CDS.
 ------------------------------------------------------------------------------
 PCM non-electrostatic energy =         0.0033362259 Hartrees.
 Nuclear repulsion after PCM non-electrostatic terms =      258.4718430165 Hartrees.
 Leave Link  301 at Mon May 16 17:17:09 2022, MaxMem=  2147483648 cpu:         0.4
 (Enter /gpfs/runtime/opt/gaussian/g09-D01/g09/l302.exe)
 NPDir=0 NMtPBC=     1 NCelOv=     1 NCel=       1 NClECP=     1 NCelD=      1
         NCelK=      1 NCelE2=     1 NClLst=     1 CellRange=     0.0.
 One-electron integrals computed using PRISM.
 NBasis=   143 RedAO= T EigKep=  8.06D-05  NBF=   143
 NBsUse=   143 1.00D-06 EigRej= -1.00D+00 NBFU=   143
 Precomputing XC quadrature grid using
 IXCGrd= 4 IRadAn=           0 IRanWt=          -1 IRanGd=           0 AccXCQ= 0.00D+00.
 Generated NRdTot=       0 NPtTot=           0 NUsed=           0 NTot=          32
 NSgBfM=   143   143   143   143   143 MxSgAt=     9 MxSgA2=     9.
 Leave Link  302 at Mon May 16 17:17:09 2022, MaxMem=  2147483648 cpu:         0.8
 (Enter /gpfs/runtime/opt/gaussian/g09-D01/g09/l303.exe)
 DipDrv:  MaxL=1.
 Leave Link  303 at Mon May 16 17:17:09 2022, MaxMem=  2147483648 cpu:         0.7
 (Enter /gpfs/runtime/opt/gaussian/g09-D01/g09/l401.exe)
 Initial guess from the checkpoint file:  "/gpfs/data/yqi27/cgu13/CHEM1560Q/Gaussian/872-36-6/inp4/Gau-240761.chk"
 B after Tr=     0.000000    0.000000    0.000000
         Rot=    1.000000   -0.000011    0.000008    0.000000 Ang=   0.00 deg.
 Guess basis will be translated and rotated to current coordinates.
 JPrj=2 DoOrth=T DoCkMO=T.
 Generating alternative initial guess.
 ExpMin= 7.40D-03 ExpMax= 5.48D+03 ExpMxC= 8.25D+02 IAcc=3 IRadAn=         5 AccDes= 0.00D+00
 Harris functional with IExCor= 1009 and IRadAn=       5 diagonalized for initial guess.
 HarFok:  IExCor= 1009 AccDes= 0.00D+00 IRadAn=         5 IDoV= 1 UseB2=F ITyADJ=14
[...]
     32  0.000000D+00  0.846683D-05 -0.783419D-05  0.349130D-05  0.434288D-05
     33  0.192572D-05  0.366837D-05 -0.304737D-05  0.000000D+00  0.198039D-05
     34  0.000000D+00  0.377222D-05 -0.605647D-05  0.381458D-05  0.299257D-05
     35  0.229589D-05 -0.102624D-05 -0.126965D-05  0.000000D+00  0.000000D+00
     36  0.652732D-05  0.000000D+00 -0.242465D-05  0.000000D+00  0.112236D-05
     37  0.454053D-05  0.322909D-05 -0.541576D-05  0.222964D-05  0.259649D-05
               16            17            18            19            20 
     16  0.120572D+00
     17 -0.749804D-01  0.110322D+00
     18  0.405641D-01 -0.615237D-01  0.883415D-01
     19  0.344162D-01 -0.487985D-01 -0.268177D-01  0.756162D-01
     20  0.105076D-01 -0.531664D-01  0.277754D-01  0.253910D-01  0.110322D+00
     21 -0.117874D-01  0.253910D-01 -0.128285D-01 -0.125625D-01 -0.487984D-01
     22  0.127971D-02  0.277754D-01 -0.149469D-01 -0.128285D-01 -0.615238D-01
     23  0.104276D-02  0.105077D-01  0.127974D-02 -0.117874D-01 -0.749804D-01
     24 -0.522420D-05  0.602669D-05 -0.217432D-05 -0.410162D-05  0.228077D-05
     25 -0.310049D-05  0.133908D-04 -0.928683D-05 -0.195729D-05 -0.511098D-05
     26 -0.654328D-05  0.348242D-05 -0.225187D-05  0.000000D+00 -0.139859D-05
     27 -0.616506D-05  0.545538D-05 -0.305036D-05  0.000000D+00  0.000000D+00
     28 -0.782463D-05  0.000000D+00  0.235231D-05 -0.289858D-05  0.494471D-05
     29 -0.428133D-05  0.956117D-05 -0.467343D-05 -0.410393D-05  0.124338D-05
     30  0.000000D+00  0.707116D-05  0.000000D+00 -0.888608D-05 -0.101726D-04
     31  0.683637D-05  0.105107D-05 -0.121670D-04  0.115975D-04 -0.113493D-04
     32  0.191941D-04 -0.109222D-04  0.526358D-05  0.773767D-05 -0.650517D-05
     33  0.608216D-05 -0.331505D-05  0.475715D-05  0.000000D+00 -0.611388D-05
     34  0.132665D-04 -0.793294D-05 -0.160133D-05  0.776535D-05 -0.207466D-05
     35  0.000000D+00  0.000000D+00 -0.210776D-05  0.000000D+00 -0.168337D-05
     36  0.161776D-05 -0.569778D-05  0.389877D-05  0.100427D-05  0.356601D-05
     37  0.100722D-04 -0.100467D-04  0.348854D-05  0.553821D-05  0.000000D+00
               21            22            23            24            25 
     21  0.756161D-01
     22 -0.268177D-01  0.883414D-01
     23  0.344162D-01  0.405642D-01  0.120572D+00
     24  0.000000D+00 -0.191000D-05  0.353439D-05  0.290332D-01
     25  0.000000D+00  0.403818D-05  0.496467D-05 -0.112504D-01  0.198615D-01
     26  0.218811D-05  0.000000D+00  0.000000D+00  0.584691D-04 -0.391873D-04
     27  0.112925D-05  0.000000D+00  0.000000D+00 -0.264323D-01  0.138514D-01
     28  0.133337D-05 -0.467886D-05 -0.207990D-05  0.138514D-01 -0.172605D-01
     29  0.000000D+00  0.000000D+00  0.276406D-05  0.254257D-02  0.264006D-02
     30  0.345820D-05  0.612231D-05  0.551009D-05  0.405357D-02 -0.147041D-01
     31  0.609428D-05  0.449516D-05  0.877984D-05  0.314439D-02 -0.687389D-02
     32  0.430695D-05  0.374702D-05  0.109752D-04  0.427705D-02  0.427709D-02
     33  0.756532D-05 -0.276924D-05  0.904973D-05 -0.257011D-02  0.826902D-02
     34  0.000000D+00  0.440234D-05  0.339450D-05  0.540467D-02 -0.543444D-02
     35  0.268760D-05 -0.211392D-05  0.146904D-05 -0.144249D-02 -0.144251D-02
     36 -0.506169D-05  0.000000D+00  0.000000D+00 -0.110806D-01  0.767707D-02
     37  0.758737D-05 -0.778992D-05  0.429448D-05 -0.555982D-02  0.445843D-02
               26            27            28            29            30 
     26  0.659399D-02
     27  0.254250D-02  0.290333D-01
     28  0.264016D-02 -0.112504D-01  0.198614D-01
     29 -0.399298D-02  0.584075D-04 -0.390808D-04  0.659391D-02
     30 -0.270581D-02 -0.110806D-01  0.767710D-02 -0.432116D-02  0.162394D-01
     31 -0.953207D-03 -0.555984D-02  0.445844D-02 -0.146220D-02  0.667909D-02
     32  0.427706D-02  0.427707D-02  0.427704D-02  0.427707D-02 -0.115553D-01
     33  0.731184D-03  0.540469D-02 -0.543445D-02  0.210335D-02 -0.796007D-02
     34  0.210338D-02 -0.257011D-02  0.826900D-02  0.731224D-03  0.301915D-03
     35 -0.144250D-02 -0.144250D-02 -0.144249D-02 -0.144250D-02  0.389719D-02
     36 -0.432122D-02  0.405357D-02 -0.147041D-01 -0.270588D-02  0.274552D-02
     37 -0.146223D-02  0.314439D-02 -0.687387D-02 -0.953242D-03 -0.153298D-03
               31            32            33            34            35 
     31  0.843548D-02
     32 -0.397198D-02  0.140665D-01
     33  0.642241D-03  0.466121D-02  0.126637D-01
     34 -0.615035D-02  0.466119D-02 -0.600787D-02  0.126637D-01
     35 -0.153613D-02 -0.474411D-02  0.199460D-02  0.199461D-02  0.873332D-02
     36 -0.153297D-03 -0.115553D-01  0.301907D-03 -0.796004D-02  0.389718D-02
     37 -0.387367D-02 -0.397197D-02 -0.615035D-02  0.642252D-03 -0.153613D-02
               36            37 
     36  0.162394D-01
     37  0.667907D-02  0.843547D-02
 Leave Link  716 at Mon May 16 17:19:04 2022, MaxMem=  2147483648 cpu:         0.8
 (Enter /gpfs/runtime/opt/gaussian/g09-D01/g09/l103.exe)

 GradGradGradGradGradGradGradGradGradGradGradGradGradGradGradGradGradGrad
 Berny optimization.
 Red2BG is reusing G-inverse.
 Internal  Forces:  Max     0.000099506 RMS     0.000033205
 Search for a local minimum.
 Step number   1 out of a maximum of    2
 All quantities printed in internal units (Hartrees-Bohrs-Radians)
 Second derivative matrix not updated -- analytic derivatives used.
 ITU=  0
     Eigenvalues ---    0.00667   0.00952   0.01288   0.02128   0.02733
     Eigenvalues ---    0.02787   0.04793   0.08899   0.09877   0.10343
     Eigenvalues ---    0.19614   0.24057   0.24295   0.34294   0.38157
     Eigenvalues ---    0.38544   0.38688   0.42147   0.45198   0.58947
     Eigenvalues ---    0.65135
 Angle between quadratic step and forces=  46.79 degrees.
 Linear search not attempted -- first point.
 Iteration  1 RMS(Cart)=  0.00018400 RMS(Int)=  0.00000004
 Iteration  2 RMS(Cart)=  0.00000005 RMS(Int)=  0.00000002
 ITry= 1 IFail=0 DXMaxC= 5.66D-04 DCOld= 1.00D+10 DXMaxT= 3.00D-01 DXLimC= 3.00D+00 Rises=F
 Variable       Old X    -DE/DX   Delta X   Delta X   Delta X     New X
                                 (Linear)    (Quad)   (Total)
    R1        2.29339   0.00000   0.00000   0.00003   0.00003   2.29342
    R2        3.42983   0.00001   0.00000   0.00047   0.00047   3.43030
    R3        2.51234   0.00002   0.00000   0.00005   0.00005   2.51239
    R4        2.51234   0.00002   0.00000   0.00005   0.00005   2.51239
    R5        5.72322   0.00001   0.00000   0.00050   0.00050   5.72372
    R6        2.62553   0.00002   0.00000   0.00016   0.00016   2.62569
    R7        2.50958  -0.00010   0.00000  -0.00022  -0.00022   2.50936
    R8        2.03788   0.00000   0.00000   0.00001   0.00001   2.03789
    R9        2.62553   0.00002   0.00000   0.00016   0.00016   2.62569
   R10        2.03788   0.00000   0.00000   0.00001   0.00001   2.03789
    A1        2.18226  -0.00003   0.00000  -0.00014  -0.00014   2.18212
    A2        2.18226  -0.00003   0.00000  -0.00014  -0.00014   2.18212
    A3        1.91866   0.00007   0.00000   0.00029   0.00029   1.91894
    A4        2.18227  -0.00003   0.00000  -0.00015  -0.00015   2.18212
    A5        2.18226  -0.00003   0.00000  -0.00014  -0.00014   2.18212
    A6        1.87171  -0.00008   0.00000  -0.00027  -0.00027   1.87144
    A7        1.88135   0.00004   0.00000   0.00012   0.00012   1.88147
    A8        2.05491  -0.00003   0.00000  -0.00016  -0.00016   2.05475
    A9        2.34692  -0.00001   0.00000   0.00004   0.00004   2.34696
   A10        1.88135   0.00004   0.00000   0.00012   0.00012   1.88147
   A11        2.34692  -0.00001   0.00000   0.00004   0.00004   2.34696
   A12        2.05491  -0.00003   0.00000  -0.00016  -0.00016   2.05475
   A13        1.87171  -0.00008   0.00000  -0.00027  -0.00027   1.87144
    D1       -3.14157  -0.00001   0.00000  -0.00002  -0.00002   3.14159
    D2       -0.00023   0.00001   0.00000   0.00023   0.00023   0.00000
    D3        3.14126   0.00001   0.00000   0.00035   0.00035  -3.14158
    D4        3.14138   0.00002   0.00000   0.00022   0.00022  -3.14159
    D5        0.00003  -0.00001   0.00000  -0.00003  -0.00003   0.00000
    D6       -3.14145   0.00000   0.00000  -0.00015  -0.00015   3.14158
    D7        0.00034  -0.00002   0.00000  -0.00034  -0.00034   0.00000
    D8       -3.14148  -0.00001   0.00000  -0.00011  -0.00011  -3.14159
    D9       -0.00032   0.00002   0.00000   0.00032   0.00032   0.00000
   D10        3.14149   0.00001   0.00000   0.00011   0.00011   3.14159
   D11        3.14156   0.00000   0.00000   0.00003   0.00003   3.14159
   D12        0.00018  -0.00001   0.00000  -0.00018  -0.00018   0.00000
   D13        0.00019  -0.00001   0.00000  -0.00018  -0.00018   0.00000
   D14       -3.14158   0.00000   0.00000  -0.00001  -0.00001  -3.14159
         Item               Value     Threshold  Converged?
 Maximum Force            0.000100     0.000450     YES
 RMS     Force            0.000033     0.000300     YES
 Maximum Displacement     0.000566     0.001800     YES
 RMS     Displacement     0.000184     0.001200     YES
 Predicted change in Energy=-8.514770D-08
 Optimization completed.
    -- Stationary point found.
                           ----------------------------
                           !   Optimized Parameters   !
                           ! (Angstroms and Degrees)  !
 --------------------------                            --------------------------
 ! Name  Definition              Value          Derivative Info.                !
 --------------------------------------------------------------------------------
 ! R1    R(1,2)                  1.2136         -DE/DX =    0.0                 !
 ! R2    R(1,9)                  1.815          -DE/DX =    0.0                 !
 ! R3    R(2,3)                  1.3295         -DE/DX =    0.0                 !
 ! R4    R(2,6)                  1.3295         -DE/DX =    0.0                 !
 ! R5    R(2,9)                  3.0286         -DE/DX =    0.0                 !
 ! R6    R(3,4)                  1.3894         -DE/DX =    0.0                 !
 ! R7    R(4,5)                  1.328          -DE/DX =   -0.0001              !
 ! R8    R(4,7)                  1.0784         -DE/DX =    0.0                 !
 ! R9    R(5,6)                  1.3894         -DE/DX =    0.0                 !
 ! R10   R(5,8)                  1.0784         -DE/DX =    0.0                 !
 ! A1    A(1,2,3)              125.0345         -DE/DX =    0.0                 !
 ! A2    A(1,2,6)              125.0345         -DE/DX =    0.0                 !
 ! A3    A(3,2,6)              109.9309         -DE/DX =    0.0001              !
 ! A4    A(3,2,9)              125.0348         -DE/DX =    0.0                 !
 ! A5    A(6,2,9)              125.0343         -DE/DX =    0.0                 !
 ! A6    A(2,3,4)              107.241          -DE/DX =   -0.0001              !
 ! A7    A(3,4,5)              107.7935         -DE/DX =    0.0                 !
 ! A8    A(3,4,7)              117.7377         -DE/DX =    0.0                 !
 ! A9    A(5,4,7)              134.4688         -DE/DX =    0.0                 !
 ! A10   A(4,5,6)              107.7935         -DE/DX =    0.0                 !
 ! A11   A(4,5,8)              134.4688         -DE/DX =    0.0                 !
 ! A12   A(6,5,8)              117.7377         -DE/DX =    0.0                 !
 ! A13   A(2,6,5)              107.241          -DE/DX =   -0.0001              !
 ! D1    D(1,2,3,4)            180.0012         -DE/DX =    0.0                 !
 ! D2    D(6,2,3,4)             -0.0131         -DE/DX =    0.0                 !
 ! D3    D(9,2,3,4)           -180.0191         -DE/DX =    0.0                 !
 ! D4    D(1,2,6,5)           -180.0124         -DE/DX =    0.0                 !
 ! D5    D(3,2,6,5)              0.0019         -DE/DX =    0.0                 !
 ! D6    D(9,2,6,5)            180.0079         -DE/DX =    0.0                 !
 ! D7    D(2,3,4,5)              0.0196         -DE/DX =    0.0                 !
 ! D8    D(2,3,4,7)           -179.9937         -DE/DX =    0.0                 !
 ! D9    D(3,4,5,6)             -0.0184         -DE/DX =    0.0                 !
 ! D10   D(3,4,5,8)            179.9939         -DE/DX =    0.0                 !
 ! D11   D(7,4,5,6)            179.9981         -DE/DX =    0.0                 !
 ! D12   D(7,4,5,8)              0.0104         -DE/DX =    0.0                 !
 ! D13   D(4,5,6,2)              0.0106         -DE/DX =    0.0                 !
 ! D14   D(8,5,6,2)           -179.9993         -DE/DX =    0.0                 !
 --------------------------------------------------------------------------------
 GradGradGradGradGradGradGradGradGradGradGradGradGradGradGradGradGradGrad

 Leave Link  103 at Mon May 16 17:19:05 2022, MaxMem=  2147483648 cpu:         4.3
 (Enter /gpfs/runtime/opt/gaussian/g09-D01/g09/l9999.exe)
 1\1\GINC-NODE1714\Freq\RM062X\6-31+G(d,p)\C3H2Li1O3(1+)\ROOT\16-May-20
 22\0\\#P Geom=AllCheck Guess=TCheck SCRF=Check GenChk RM062X/6-31+G(d,
 p) Freq\\872-36-6\\1,1\O,-1.8140608719,0.0000037879,-0.0003710409\C,-0
 .6004522406,0.0000022823,-0.000367378\O,0.1627605986,1.0885831962,0.00
 04471148\C,1.4856707637,0.6640069001,0.0001055635\C,1.4856692949,-0.66
 40065673,-0.0013353426\O,0.1627582144,-1.0885801337,-0.0014896327\H,2.
 2552534803,1.419448352,0.0007729333\H,2.2552503547,-1.419449533,-0.002
 1681593\Li,-3.6290495942,-0.0000082796,0.0005059419\\Version=EM64L-G09
 RevD.01\State=1-A\HF=-348.5078966\RMSD=1.877e-09\RMSF=6.783e-05\ZeroPo
 int=0.0532472\Thermal=0.0592875\Dipole=-3.2941556,-0.0000192,0.0015263
 \DipoleDeriv=-2.761873,0.0000011,0.0002964,-0.0000015,-0.6240145,-0.00
 00313,0.0001383,-0.0000419,-0.5772906,3.4290552,0.0000061,-0.0003068,-
 0.0000009,1.2865748,0.0004922,-0.0001353,0.0005562,0.6567448,-1.255783
 3,0.2194825,0.000342,-0.6485879,-0.7550538,-0.0004706,-0.0004292,-0.00
 04338,-0.1783355,0.5702519,-0.3066469,-0.0003066,-0.2174854,0.2465896,
 0.0003506,-0.0002839,0.0002071,-0.0880617,0.570248,0.3066514,0.0002122
 ,0.2174836,0.2465903,0.0003197,0.0001371,0.0001957,-0.0880617,-1.25578
 06,-0.2194901,-0.0001531,0.6485893,-0.7550554,-0.0005743,0.0007575,-0.
 0004856,-0.178335,0.1778834,0.080784,0.0000801,0.0390213,0.214087,-0.0
 000466,0.000053,-0.0000064,0.2643325,0.1778831,-0.0807837,-0.0000694,-
 0.0390206,0.2140867,-0.0000413,-0.0000329,0.0000071,0.2643325,1.348115
 3,-0.0000044,-0.0000948,0.0000021,0.9261955,0.0000016,-0.0002047,0.000
 0016,0.9246746\Polar=65.4363925,-0.0000691,51.5394903,-0.0036528,0.022
 6544,30.0909328\PG=C01 [X(C3H2Li1O3)]\NImag=0\\0.88524099,-0.00000079,
 0.09093915,-0.00001954,0.00005401,0.03039412,-0.68893331,0.00000055,0.
 00000779,1.17766708,0.00000024,-0.09174905,-0.00002066,0.00000002,0.58
 327131,0.00001935,-0.00001935,-0.06823818,-0.00005522,0.00032414,0.220
 52904,-0.07258315,-0.06073853,-0.00004082,-0.15783904,-0.07462381,-0.0
 0006026,0.50113765,-0.05372784,0.00554516,-0.00000755,-0.04369064,-0.2
 5311442,-0.00013230,0.02783263,0.49973309,-0.00004024,-0.00000839,0.01
 606912,-0.00003266,-0.00012341,-0.08308307,-0.00001373,0.00036207,0.07
 427841,-0.00300985,0.00785777,0.00000641,-0.07056763,-0.07797850,-0.00
 006940,-0.21518027,0.03627686,0.00004380,0.62718485,-0.00090563,-0.007
 19637,-0.00000493,-0.02218214,0.01188174,-0.00000442,0.07363944,-0.121
 53597,-0.00005693,0.18067788,0.95598383,-0.00000242,-0.00000701,0.0026
 6123,-0.00000972,-0.00000021,0.00686745,0.00008388,-0.00006217,-0.0494
 9312,0.00013256,0.00085094,0.11096391,-0.00300994,-0.00785774,-0.00000
 900,-0.07056810,0.07797893,0.00008699,-0.06118878,0.01266190,0.0000257
 6,-0.07457770,-0.01851180,-0.00001827,0.62718381,0.00090540,-0.0071961
 0,-0.00001053,0.02218219,0.01188111,0.00000203,0.05611226,-0.05288302,
 -0.00007203,0.01851070,-0.56131680,-0.00054473,-0.18067745,0.95598455,
 0.00000087,-0.00000731,0.00266124,0.00003160,-0.00000977,0.00686745,0.
 00005848,-0.00005883,0.01649288,0.00002358,-0.00053967,-0.06096972,-0.
 00023741,0.00089369,0.11096386,-0.07258272,0.06073842,0.00006702,-0.15
 783832,0.07462327,0.00007479,0.01471971,0.03773799,0.00003256,-0.06118
 889,-0.05611201,-0.00004542,-0.21518016,-0.07363896,-0.00005008,0.5011
 3673,0.05372822,0.00554488,-0.00001329,0.04369029,-0.25311428,-0.00016
 318,-0.03773827,-0.08997078,-0.00010137,-0.01266210,-0.05288312,-0.000
 05556,-0.03627660,-0.12153566,-0.00006619,-0.02783235,0.49973288,0.000
 05385,-0.00001495,0.01606908,0.00004785,-0.00016632,-0.08308309,-0.000
 03132,-0.00010154,0.01799496,-0.00000809,-0.00006395,0.01649290,-0.000
 01200,-0.00005551,-0.04949303,-0.00006892,0.00039657,0.07427837,-0.001
 03889,-0.00185400,-0.00000135,-0.00322944,0.00804378,0.00000606,-0.021
 44709,-0.02069088,-0.00001760,-0.21063293,-0.15528500,-0.00013953,0.00
 807718,0.00161936,0.00000065,0.00575345,0.00203304,0.00000232,0.222520
 51,0.00204286,0.00160817,0.00000022,0.00273213,-0.00397621,-0.00000341
 ,0.01544621,0.01533933,0.00001464,-0.16928581,-0.22355860,-0.00017980,
 -0.01669522,-0.00127092,0.00000169,-0.00078397,-0.00296110,-0.00001324
 ,0.16647039,0.21496779,0.00000175,0.00000071,0.00090282,0.00000351,-0.
 00000239,0.00044578,0.00001175,0.00001553,-0.00215989,-0.00014923,-0.0
 0017345,-0.02832301,-0.00002126,-0.00000778,0.00174119,0.00000341,-0.0
 0001260,0.00964128,0.00015013,0.00017780,0.02021973,-0.00103897,0.0018
 5402,0.00000219,-0.00322939,-0.00804384,-0.00000663,0.00575360,-0.0020
 3298,-0.00000178,0.00807709,-0.00161938,-0.00000169,-0.21063220,0.1552
 8498,0.00017292,-0.02144690,0.02069087,0.00002231,-0.00011755,0.000312
 53,0.00000017,0.22251958,-0.00204275,0.00160816,0.00000059,-0.00273217
 ,-0.00397615,-0.00000320,0.00078378,-0.00296114,-0.00001404,0.01669532
 ,-0.00127096,-0.00000126,0.16928591,-0.22355936,-0.00021352,-0.0154463
 0,0.01533952,0.00001919,-0.00031254,-0.00016816,0.00000220,-0.16647036
 ,0.21496840,-0.00000220,0.00000016,0.00090281,-0.00000092,-0.00000113,
 0.00044578,-0.00000397,-0.00001249,0.00964128,0.00002044,-0.00000720,0
 .00174119,0.00018504,-0.00020525,-0.02832305,-0.00001066,0.00001380,-0
 .00215989,-0.00000062,0.00000197,-0.00249442,-0.00018738,0.00021015,0.
 02021977,-0.04304415,0.00000030,-0.00001270,-0.02546184,-0.00000009,0.
 00000432,0.00662737,0.00563296,0.00000388,-0.00010467,0.00029863,0.000
 00060,-0.00010410,-0.00029847,-0.00000061,0.00662710,-0.00563311,-0.00
 000600,0.00011476,-0.00023912,-0.00000024,0.00011474,0.00023909,0.0000
 0027,0.05523080,0.00000028,0.00089599,0.00000214,-0.00000023,-0.001104
 05,-0.00000032,-0.00071372,-0.00015226,-0.00000053,-0.00009212,-0.0001
 0375,-0.00000019,0.00009207,-0.00010380,-0.00000009,0.00071390,-0.0001
 5234,-0.00000025,-0.00002415,0.00001969,-0.00000001,0.00002415,0.00001
 969,0.,-0.00000018,0.00068084,-0.00001143,0.00000212,-0.00142225,0.000
 00778,-0.00000024,-0.00075115,-0.00000402,-0.00000271,0.00025942,-0.00
 000007,-0.00000037,0.00005918,0.00000014,0.00000010,0.00005918,-0.0000
 0270,0.00000182,0.00025942,-0.00000006,0.00000013,0.00002653,-0.000000
 10,-0.00000011,0.00002653,0.00001046,-0.00000075,0.00148314\\-0.000010
 48,0.00000001,-0.00001302,-0.00013271,0.00000002,0.00003727,0.00006319
 ,-0.00012769,-0.00003587,-0.00001291,0.00017287,0.00003325,-0.00001290
 ,-0.00017289,-0.00002762,0.00006319,0.00012769,0.00000606,0.00000780,-
 0.00001014,0.00000071,0.00000781,0.00001015,-0.00000244,0.00002701,-0.
 00000001,0.00000165\\\@


 TIME IS IN FACT THE HERO OF THE PLOT. THE TIME
 WITH WHICH WE HAVE TO DEAL IS OF THE ORDER OF TWO
 BILLION YEARS...GIVEN SO MUCH TIME, THE "IMPOSSIBLE"
 BECOMES POSSIBLE, THE POSSIBLE PROBABLE, THE PROBABLE
 VIRTUALLY CERTAIN.  ONE HAS ONLY TO WAIT, TIME
 ITSELF PERFORMS THE MIRACLES.
 "ORIGIN OF LIFE" LECTURES, GEORGE WALD, 1954
 Job cpu time:       0 days  0 hours  4 minutes 47.6 seconds.
 File lengths (MBytes):  RWF=    612 Int=      0 D2E=      0 Chk=     12 Scr=      8
 Normal termination of Gaussian 09 at Mon May 16 17:19:05 2022.
