 Entering Gaussian System, Link 0=g09
 Initial command:
 /gpfs/runtime/opt/gaussian/g09-D01/g09/l1.exe "/gpfs/data/yqi27/cgu13/CHEM1560Q/Gaussian/4427-96-7/inp3/Gau-109481.inp" -scrdir="/gpfs/data/yqi27/cgu13/CHEM1560Q/Gaussian/4427-96-7/inp3/"
 Entering Link 1 = /gpfs/runtime/opt/gaussian/g09-D01/g09/l1.exe PID=    109482.
  
 Copyright (c) 1988,1990,1992,1993,1995,1998,2003,2009,2013,
            Gaussian, Inc.  All Rights Reserved.
  
 This is part of the Gaussian(R) 09 program.  It is based on
 the Gaussian(R) 03 system (copyright 2003, Gaussian, Inc.),
 the Gaussian(R) 98 system (copyright 1998, Gaussian, Inc.),
 the Gaussian(R) 94 system (copyright 1995, Gaussian, Inc.),
 the Gaussian 92(TM) system (copyright 1992, Gaussian, Inc.),
 the Gaussian 90(TM) system (copyright 1990, Gaussian, Inc.),
 the Gaussian 88(TM) system (copyright 1988, Gaussian, Inc.),
 the Gaussian 86(TM) system (copyright 1986, Carnegie Mellon
 University), and the Gaussian 82(TM) system (copyright 1983,
 Carnegie Mellon University). Gaussian is a federally registered
 trademark of Gaussian, Inc.
  
 This software contains proprietary and confidential information,
 including trade secrets, belonging to Gaussian, Inc.
  
 This software is provided under written license and may be
 used, copied, transmitted, or stored only in accord with that
 written license.
  
 The following legend is applicable only to US Government
 contracts under FAR:
  
                    RESTRICTED RIGHTS LEGEND
  
 Use, reproduction and disclosure by the US Government is
 subject to restrictions as set forth in subparagraphs (a)
 and (c) of the Commercial Computer Software - Restricted
 Rights clause in FAR 52.227-19.
  
 Gaussian, Inc.
 340 Quinnipiac St., Bldg. 40, Wallingford CT 06492
  
  
 ---------------------------------------------------------------
 Warning -- This program may not be used in any manner that
 competes with the business of Gaussian, Inc. or will provide
 assistance to any competitor of Gaussian, Inc.  The licensee
 of this program is prohibited from giving any competitor of
 Gaussian, Inc. access to this program.  By using this program,
 the user acknowledges that Gaussian, Inc. is engaged in the
 business of creating and licensing software in the field of
 computational chemistry and represents and warrants to the
 licensee that it is not a competitor of Gaussian, Inc. and that
 it will not use this program in any manner prohibited above.
 ---------------------------------------------------------------
  

 Cite this work as:
 Gaussian 09, Revision D.01,
 M. J. Frisch, G. W. Trucks, H. B. Schlegel, G. E. Scuseria, 
 M. A. Robb, J. R. Cheeseman, G. Scalmani, V. Barone, B. Mennucci, 
 G. A. Petersson, H. Nakatsuji, M. Caricato, X. Li, H. P. Hratchian, 
 A. F. Izmaylov, J. Bloino, G. Zheng, J. L. Sonnenberg, M. Hada, 
 M. Ehara, K. Toyota, R. Fukuda, J. Hasegawa, M. Ishida, T. Nakajima, 
 Y. Honda, O. Kitao, H. Nakai, T. Vreven, J. A. Montgomery, Jr., 
 J. E. Peralta, F. Ogliaro, M. Bearpark, J. J. Heyd, E. Brothers, 
 K. N. Kudin, V. N. Staroverov, T. Keith, R. Kobayashi, J. Normand, 
 K. Raghavachari, A. Rendell, J. C. Burant, S. S. Iyengar, J. Tomasi, 
 M. Cossi, N. Rega, J. M. Millam, M. Klene, J. E. Knox, J. B. Cross, 
 V. Bakken, C. Adamo, J. Jaramillo, R. Gomperts, R. E. Stratmann, 
 O. Yazyev, A. J. Austin, R. Cammi, C. Pomelli, J. W. Ochterski, 
 R. L. Martin, K. Morokuma, V. G. Zakrzewski, G. A. Voth, 
 P. Salvador, J. J. Dannenberg, S. Dapprich, A. D. Daniels, 
 O. Farkas, J. B. Foresman, J. V. Ortiz, J. Cioslowski, 
 and D. J. Fox, Gaussian, Inc., Wallingford CT, 2013.
 
 ******************************************
 Gaussian 09:  EM64L-G09RevD.01 24-Apr-2013
                16-May-2022 
 ******************************************
 %Mem=16GB
 %NProcShared=8
 Will use up to    8 processors via shared memory.
 ----------------------------------------------------------------------
 #P M062X/6-31+G** EmpiricalDispersion=GD3 SCRF(SMD,solvent=DiMethylSul
 foxide) Opt Freq
 ----------------------------------------------------------------------
 1/14=-1,18=20,19=15,26=3,38=1/1,3;
 2/9=110,12=2,17=6,18=5,40=1/2;
 3/5=1,6=6,7=111,11=2,16=1,25=1,30=1,70=32201,71=1,72=21,74=-55,124=31/1,2,3;
 4//1;
 5/5=2,38=5,53=21/2;
 6/7=2,8=2,9=2,10=2,28=1/1;
 7//1,2,3,16;
 1/14=-1,18=20,19=15,26=3/3(2);
 2/9=110/2;
 99//99;
 2/9=110/2;
 3/5=1,6=6,7=111,11=2,16=1,25=1,30=1,70=32205,71=1,72=21,74=-55,124=31/1,2,3;
 4/5=5,16=3,69=1/1;
 5/5=2,38=5,53=21/2;
 7//1,2,3,16;
 1/14=-1,18=20,19=15,26=3/3(-5);
 2/9=110/2;
 6/7=2,8=2,9=2,10=2,19=2,28=1/1;
 99/9=1/99;
 Leave Link    1 at Mon May 16 17:07:16 2022, MaxMem=  2147483648 cpu:         1.0
 (Enter /gpfs/runtime/opt/gaussian/g09-D01/g09/l101.exe)
 ---------
 4427-96-7
 ---------
 Symbolic Z-matrix:
 Charge =  1 Multiplicity = 1
 C                     3.1116    0.4034    0.0615 
 C                     1.8904    0.2228    0.4999 
 C                     0.7805   -0.0914   -0.4698 
 H                     1.1621   -0.1191   -1.4905 
 C                     0.1086   -1.4298   -0.1073 
 O                    -1.2726   -1.0622    0.1778 
 C                    -1.4177    0.2576    0.0189 
 O                    -2.472     0.8342    0.1936 
 O                    -0.2938    0.8864   -0.3519 
 H                     3.907     0.6286    0.7565 
 H                     3.3238    0.3227   -0.9943 
 H                     1.679     0.2991    1.5563 
 H                     0.1544   -2.1211   -0.9489 
 H                     0.5778   -1.867     0.774 
 Li                    0.8028   -0.2026    4.5563 
 
 Add virtual bond connecting atoms Li15       and H12        Dist= 5.98D+00.
 NAtoms=     15 NQM=       15 NQMF=       0 NMMI=      0 NMMIF=      0
                NMic=       0 NMicF=      0.
                    Isotopes and Nuclear Properties:
 (Nuclear quadrupole moments (NQMom) in fm**2, nuclear magnetic moments (NMagM)
  in nuclear magnetons)

  Atom         1           2           3           4           5           6           7           8           9          10
 IAtWgt=          12          12          12           1          12          16          12          16          16           1
 AtmWgt=  12.0000000  12.0000000  12.0000000   1.0078250  12.0000000  15.9949146  12.0000000  15.9949146  15.9949146   1.0078250
 NucSpn=           0           0           0           1           0           0           0           0           0           1
 AtZEff=   0.0000000   0.0000000   0.0000000   0.0000000   0.0000000   0.0000000   0.0000000   0.0000000   0.0000000   0.0000000
 NQMom=    0.0000000   0.0000000   0.0000000   0.0000000   0.0000000   0.0000000   0.0000000   0.0000000   0.0000000   0.0000000
 NMagM=    0.0000000   0.0000000   0.0000000   2.7928460   0.0000000   0.0000000   0.0000000   0.0000000   0.0000000   2.7928460
 AtZNuc=   6.0000000   6.0000000   6.0000000   1.0000000   6.0000000   8.0000000   6.0000000   8.0000000   8.0000000   1.0000000

  Atom        11          12          13          14          15
 IAtWgt=           1           1           1           1           7
 AtmWgt=   1.0078250   1.0078250   1.0078250   1.0078250   7.0160045
 NucSpn=           1           1           1           1           3
 AtZEff=   0.0000000   0.0000000   0.0000000   0.0000000   0.0000000
 NQMom=    0.0000000   0.0000000   0.0000000   0.0000000  -4.0100000
 NMagM=    2.7928460   2.7928460   2.7928460   2.7928460   3.2564240
 AtZNuc=   1.0000000   1.0000000   1.0000000   1.0000000   3.0000000
 Leave Link  101 at Mon May 16 17:07:17 2022, MaxMem=  2147483648 cpu:         2.2
 (Enter /gpfs/runtime/opt/gaussian/g09-D01/g09/l103.exe)

 GradGradGradGradGradGradGradGradGradGradGradGradGradGradGradGradGradGrad
 Berny optimization.
 Initialization pass.
                           ----------------------------
                           !    Initial Parameters    !
                           ! (Angstroms and Degrees)  !
 --------------------------                            --------------------------
 ! Name  Definition              Value          Derivative Info.                !
 --------------------------------------------------------------------------------
 ! R1    R(1,2)                  1.31           estimate D2E/DX2                !
 ! R2    R(1,10)                 1.08           estimate D2E/DX2                !
 ! R3    R(1,11)                 1.0799         estimate D2E/DX2                !
 ! R4    R(2,3)                  1.507          estimate D2E/DX2                !
 ! R5    R(2,12)                 1.08           estimate D2E/DX2                !
 ! R6    R(3,4)                  1.0901         estimate D2E/DX2                !
 ! R7    R(3,5)                  1.5408         estimate D2E/DX2                !
 ! R8    R(3,9)                  1.4574         estimate D2E/DX2                !
 ! R9    R(5,6)                  1.4574         estimate D2E/DX2                !
 ! R10   R(5,13)                 1.0901         estimate D2E/DX2                !
 ! R11   R(5,14)                 1.0899         estimate D2E/DX2                !
 ! R12   R(6,7)                  1.3372         estimate D2E/DX2                !
 ! R13   R(7,8)                  1.2143         estimate D2E/DX2                !
 ! R14   R(7,9)                  1.3402         estimate D2E/DX2                !
 ! R15   R(12,15)                3.1653         estimate D2E/DX2                !
 ! A1    A(2,1,10)             119.9961         estimate D2E/DX2                !
 ! A2    A(2,1,11)             120.0029         estimate D2E/DX2                !
 ! A3    A(10,1,11)            120.0004         estimate D2E/DX2                !
 ! A4    A(1,2,3)              119.999          estimate D2E/DX2                !
 ! A5    A(1,2,12)             120.0033         estimate D2E/DX2                !
 ! A6    A(3,2,12)             119.9977         estimate D2E/DX2                !
 ! A7    A(2,3,4)              110.4876         estimate D2E/DX2                !
 ! A8    A(2,3,5)              110.5416         estimate D2E/DX2                !
 ! A9    A(2,3,9)              110.5461         estimate D2E/DX2                !
 ! A10   A(4,3,5)              110.5409         estimate D2E/DX2                !
 ! A11   A(4,3,9)              110.5389         estimate D2E/DX2                !
 ! A12   A(5,3,9)              104.0224         estimate D2E/DX2                !
 ! A13   A(3,5,6)              103.8976         estimate D2E/DX2                !
 ! A14   A(3,5,13)             110.5423         estimate D2E/DX2                !
 ! A15   A(3,5,14)             110.5443         estimate D2E/DX2                !
 ! A16   A(6,5,13)             110.536          estimate D2E/DX2                !
 ! A17   A(6,5,14)             110.5462         estimate D2E/DX2                !
 ! A18   A(13,5,14)            110.597          estimate D2E/DX2                !
 ! A19   A(5,6,7)              109.1792         estimate D2E/DX2                !
 ! A20   A(6,7,8)              123.077          estimate D2E/DX2                !
 ! A21   A(6,7,9)              113.8887         estimate D2E/DX2                !
 ! A22   A(8,7,9)              123.0342         estimate D2E/DX2                !
 ! A23   A(3,9,7)              109.0119         estimate D2E/DX2                !
 ! A24   L(2,12,15,6,-1)       170.2347         estimate D2E/DX2                !
 ! A25   L(2,12,15,6,-2)       169.7211         estimate D2E/DX2                !
 ! D1    D(10,1,2,3)           179.9986         estimate D2E/DX2                !
 ! D2    D(10,1,2,12)           -0.0002         estimate D2E/DX2                !
 ! D3    D(11,1,2,3)            -0.2775         estimate D2E/DX2                !
 ! D4    D(11,1,2,12)          179.7237         estimate D2E/DX2                !
 ! D5    D(1,2,3,4)             -0.7015         estimate D2E/DX2                !
 ! D6    D(1,2,3,5)            121.9826         estimate D2E/DX2                !
 ! D7    D(1,2,3,9)           -123.3863         estimate D2E/DX2                !
 ! D8    D(12,2,3,4)           179.2973         estimate D2E/DX2                !
 ! D9    D(12,2,3,5)           -58.0185         estimate D2E/DX2                !
 ! D10   D(12,2,3,9)            56.6125         estimate D2E/DX2                !
 ! D11   D(2,3,5,6)            118.6082         estimate D2E/DX2                !
 ! D12   D(2,3,5,13)          -122.7957         estimate D2E/DX2                !
 ! D13   D(2,3,5,14)            -0.0009         estimate D2E/DX2                !
 ! D14   D(4,3,5,6)           -118.7388         estimate D2E/DX2                !
 ! D15   D(4,3,5,13)            -0.1427         estimate D2E/DX2                !
 ! D16   D(4,3,5,14)           122.6521         estimate D2E/DX2                !
 ! D17   D(9,3,5,6)             -0.0697         estimate D2E/DX2                !
 ! D18   D(9,3,5,13)           118.5264         estimate D2E/DX2                !
 ! D19   D(9,3,5,14)          -118.6788         estimate D2E/DX2                !
 ! D20   D(2,3,9,7)           -118.5507         estimate D2E/DX2                !
 ! D21   D(4,3,9,7)            118.7945         estimate D2E/DX2                !
 ! D22   D(5,3,9,7)              0.1241         estimate D2E/DX2                !
 ! D23   D(3,5,6,7)             -0.0061         estimate D2E/DX2                !
 ! D24   D(13,5,6,7)          -118.6065         estimate D2E/DX2                !
 ! D25   D(14,5,6,7)           118.6017         estimate D2E/DX2                !
 ! D26   D(5,6,7,8)           -179.9616         estimate D2E/DX2                !
 ! D27   D(5,6,7,9)              0.0913         estimate D2E/DX2                !
 ! D28   D(6,7,9,3)             -0.1403         estimate D2E/DX2                !
 ! D29   D(8,7,9,3)            179.9126         estimate D2E/DX2                !
 --------------------------------------------------------------------------------
 Trust Radius=3.00D-01 FncErr=1.00D-07 GrdErr=1.00D-06
 Number of steps in this run=     79 maximum allowed number of steps=    100.
 GradGradGradGradGradGradGradGradGradGradGradGradGradGradGradGradGradGrad

 Leave Link  103 at Mon May 16 17:07:17 2022, MaxMem=  2147483648 cpu:         0.3
 (Enter /gpfs/runtime/opt/gaussian/g09-D01/g09/l202.exe)
                          Input orientation:                          
 ---------------------------------------------------------------------
 Center     Atomic      Atomic             Coordinates (Angstroms)
 Number     Number       Type             X           Y           Z
 ---------------------------------------------------------------------
      1          6           0        3.111600    0.403400    0.061500
      2          6           0        1.890400    0.222800    0.499900
      3          6           0        0.780500   -0.091400   -0.469800
      4          1           0        1.162100   -0.119100   -1.490500
      5          6           0        0.108600   -1.429800   -0.107300
      6          8           0       -1.272600   -1.062200    0.177800
      7          6           0       -1.417700    0.257600    0.018900
      8          8           0       -2.472000    0.834200    0.193600
      9          8           0       -0.293800    0.886400   -0.351900
     10          1           0        3.907000    0.628600    0.756500
     11          1           0        3.323800    0.322700   -0.994300
     12          1           0        1.679000    0.299100    1.556300
     13          1           0        0.154400   -2.121100   -0.948900
     14          1           0        0.577800   -1.867000    0.774000
     15          3           0        0.802800   -0.202600    4.556300
 ---------------------------------------------------------------------
                    Distance matrix (angstroms):
                    1          2          3          4          5
     1  C    0.000000
     2  C    1.310015   0.000000
     3  C    2.441543   1.506956   0.000000
     4  H    2.546028   2.146860   1.090052   0.000000
     5  C    3.522375   2.504913   1.540834   2.177393   0.000000
     6  O    4.624145   3.429219   2.361580   3.098456   1.457438
     7  C    4.531846   3.343067   2.278752   3.012567   2.278780
     8  O    5.601752   4.415672   3.446098   4.117239   3.446119
     9  O    3.464237   2.436526   1.457434   2.104064   2.363586
    10  H    1.080001   2.072967   3.434707   3.625264   4.405792
    11  H    1.079933   2.072981   2.629630   2.261493   3.767696
    12  H    2.073077   1.080043   2.250527   3.118504   2.867545
    13  H    4.017342   3.256775   2.177434   2.305817   1.090084
    14  H    3.475991   2.483005   2.177356   2.919678   1.089946
    15  Li   5.089305   4.221163   5.027379   6.058041   4.872073
                    6          7          8          9         10
     6  O    0.000000
     7  C    1.337227   0.000000
     8  O    2.243912   1.214305   0.000000
     9  O    2.244031   1.340162   2.246074   0.000000
    10  H    5.479229   5.388332   6.407087   4.352210   0.000000
    11  H    4.941524   4.848983   5.938353   3.717185   1.870561
    12  H    3.530629   3.457582   4.401600   2.806793   2.390028
    13  H    2.104056   3.011038   4.115469   3.098766   4.954921
    14  H    2.104076   3.011000   4.115170   3.099766   4.160757
    15  Li   4.921124   5.072514   5.552695   5.145763   4.976488
                   11         12         13         14         15
    11  H    0.000000
    12  H    3.035043   0.000000
    13  H    4.002414   3.802341   0.000000
    14  H    3.932199   2.552768   1.792266   0.000000
    15  Li   6.118868   3.165348   5.865858   4.138435   0.000000
 Stoichiometry    C5H6LiO3(1+)
 Framework group  C1[X(C5H6LiO3)]
 Deg. of freedom    39
 Full point group                 C1      NOp   1
 Largest Abelian subgroup         C1      NOp   1
 Largest concise Abelian subgroup C1      NOp   1
                         Standard orientation:                         
 ---------------------------------------------------------------------
 Center     Atomic      Atomic             Coordinates (Angstroms)
 Number     Number       Type             X           Y           Z
 ---------------------------------------------------------------------
      1          6           0        2.968768   -0.421208   -0.392465
      2          6           0        1.786283    0.125070   -0.252999
      3          6           0        0.599335   -0.729849    0.109195
      4          1           0        0.896416   -1.774259    0.204923
      5          6           0       -0.048551   -0.230198    1.414862
      6          8           0       -1.399812    0.141827    1.015093
      7          6           0       -1.549736   -0.088048   -0.293668
      8          8           0       -2.582967    0.134492   -0.891536
      9          8           0       -0.456134   -0.587589   -0.885722
     10          1           0        3.819390    0.191533   -0.652064
     11          1           0        3.093850   -1.483478   -0.243494
     12          1           0        1.662021    1.188151   -0.397608
     13          1           0       -0.075405   -1.027289    2.157969
     14          1           0        0.488296    0.636172    1.801100
     15          3           0        1.030047    4.274909   -0.094354
 ---------------------------------------------------------------------
 Rotational constants (GHZ):      2.2010481      1.1696052      0.9999664
 Leave Link  202 at Mon May 16 17:07:17 2022, MaxMem=  2147483648 cpu:         0.6
 (Enter /gpfs/runtime/opt/gaussian/g09-D01/g09/l301.exe)
 Standard basis: 6-31+G(d,p) (6D, 7F)
 Ernie: Thresh=  0.10000D-02 Tol=  0.10000D-05 Strict=F.
 There are   201 symmetry adapted cartesian basis functions of A   symmetry.
 There are   201 symmetry adapted basis functions of A   symmetry.
   201 basis functions,   330 primitive gaussians,   201 cartesian basis functions
    31 alpha electrons       31 beta electrons
       nuclear repulsion energy       391.8820895393 Hartrees.
 IExCor= 4336 DFT=T Ex+Corr=M062X ExCW=0 ScaHFX=  0.540000
 ScaDFX=  1.000000  1.000000  1.000000  1.000000 ScalE2=  1.000000  1.000000
 IRadAn=      0 IRanWt=     -1 IRanGd=            0 ICorTp=0 IEmpDi=131
 NAtoms=   15 NActive=   15 NUniq=   15 SFac= 1.00D+00 NAtFMM=   60 NAOKFM=F Big=F
 Integral buffers will be    131072 words long.
 Raffenetti 2 integral format.
 Two-electron integral symmetry is turned on.
 R6Disp:  Grimme-D3 Dispersion energy=       -0.0005510300 Hartrees.
 Nuclear repulsion after empirical dispersion term =      391.8815385094 Hartrees.
 ------------------------------------------------------------------------------
 Polarizable Continuum Model (PCM)
 =================================
 Model                : PCM (using non-symmetric T matrix).
 Atomic radii         : SMD-Coulomb.
 Polarization charges : Total charges.
 Charge compensation  : None.
 Solution method      : On-the-fly selection.
 Cavity type          : VdW (van der Waals Surface) (Alpha=1.000).
 Cavity algorithm     : GePol (No added spheres)
                        Default sphere list used, NSphG=   15.
                        Lebedev-Laikov grids with approx.  5.0 points / Ang**2.
                        Smoothing algorithm: Karplus/York (Gamma=1.0000).
                        Polarization charges: spherical gaussians, with
                                              point-specific exponents (IZeta= 3).
                        Self-potential: point-specific (ISelfS= 7).
                        Self-field    : sphere-specific E.n sum rule (ISelfD= 2).
 1st derivatives      : Analytical E(r).r(x)/FMM algorithm (CHGder, D1EAlg=3).
                        Cavity 1st derivative terms included.
 Solvent              : DiMethylSulfoxide, Eps=  46.826000 Eps(inf)=   2.007889
 ------------------------------------------------------------------------------
 Spheres list:
 ISph  on   Nord     Re0    Alpha      Xe            Ye            Ze
    1   C      1    1.8500  1.000      2.968768     -0.421208     -0.392465
    2   C      2    1.8500  1.000      1.786283      0.125070     -0.252999
    3   C      3    1.8500  1.000      0.599335     -0.729849      0.109195
    4   H      4    1.2000  1.000      0.896416     -1.774259      0.204923
    5   C      5    1.8500  1.000     -0.048551     -0.230198      1.414862
    6   O      6    2.2940  1.000     -1.399812      0.141827      1.015093
    7   C      7    1.8500  1.000     -1.549736     -0.088048     -0.293668
    8   O      8    2.2940  1.000     -2.582967      0.134492     -0.891536
    9   O      9    2.2940  1.000     -0.456134     -0.587589     -0.885722
   10   H     10    1.2000  1.000      3.819390      0.191533     -0.652064
   11   H     11    1.2000  1.000      3.093850     -1.483478     -0.243494
   12   H     12    1.2000  1.000      1.662021      1.188151     -0.397608
   13   H     13    1.2000  1.000     -0.075405     -1.027289      2.157969
   14   H     14    1.2000  1.000      0.488296      0.636172      1.801100
   15  Li     15    1.8200  1.000      1.030047      4.274909     -0.094354
 ------------------------------------------------------------------------------
 Separa: There are  2 disjoint cavities,
 GePol: Number of generator spheres                  =      15
 GePol: Total number of spheres                      =      15
 GePol: Number of exposed spheres                    =      15 (100.00%)
 GePol: Number of points                             =    1637
 GePol: Average weight of points                     =       0.13
 GePol: Minimum weight of points                     =   0.14D-10
 GePol: Maximum weight of points                     =    0.17992
 GePol: Number of points with low weight             =      60
 GePol: Fraction of low-weight points (<1% of avg)   =       3.67%
 ------------------------------------------------------------------------------
 Atomic radii for non-electrostatic terms: SMD-CDS.
 ------------------------------------------------------------------------------
 PCM non-electrostatic energy =         0.0011747073 Hartrees.
 Nuclear repulsion after PCM non-electrostatic terms =      391.8827132167 Hartrees.
 Leave Link  301 at Mon May 16 17:07:17 2022, MaxMem=  2147483648 cpu:         1.1
 (Enter /gpfs/runtime/opt/gaussian/g09-D01/g09/l302.exe)
 NPDir=0 NMtPBC=     1 NCelOv=     1 NCel=       1 NClECP=     1 NCelD=      1
         NCelK=      1 NCelE2=     1 NClLst=     1 CellRange=     0.0.
 One-electron integrals computed using PRISM.
 NBasis=   201 RedAO= T EigKep=  2.64D-05  NBF=   201
 NBsUse=   201 1.00D-06 EigRej= -1.00D+00 NBFU=   201
 Precomputing XC quadrature grid using
 IXCGrd= 4 IRadAn=           0 IRanWt=          -1 IRanGd=           0 AccXCQ= 0.00D+00.
 Generated NRdTot=       0 NPtTot=           0 NUsed=           0 NTot=          32
 NSgBfM=   201   201   201   201   201 MxSgAt=    15 MxSgA2=    15.
 Leave Link  302 at Mon May 16 17:07:18 2022, MaxMem=  2147483648 cpu:         6.6
 (Enter /gpfs/runtime/opt/gaussian/g09-D01/g09/l303.exe)
 DipDrv:  MaxL=1.
 Leave Link  303 at Mon May 16 17:07:18 2022, MaxMem=  2147483648 cpu:         0.2
 (Enter /gpfs/runtime/opt/gaussian/g09-D01/g09/l401.exe)
 ExpMin= 7.40D-03 ExpMax= 5.48D+03 ExpMxC= 8.25D+02 IAcc=3 IRadAn=         5 AccDes= 0.00D+00
 Harris functional with IExCor= 1009 and IRadAn=       5 diagonalized for initial guess.
 HarFok:  IExCor= 1009 AccDes= 0.00D+00 IRadAn=         5 IDoV= 1 UseB2=F ITyADJ=14
 ICtDFT=  3500011 ScaDFX=  1.000000  1.000000  1.000000  1.000000
 FoFCou: FMM=F IPFlag=           0 FMFlag=      100000 FMFlg1=           0
         NFxFlg=           0 DoJE=T BraDBF=F KetDBF=T FulRan=T
         wScrn=  0.000000 ICntrl=     500 IOpCl=  0 I1Cent=   200000004 NGrid=           0
         NMat0=    1 NMatS0=      1 NMatT0=    0 NMatD0=    1 NMtDS0=    0 NMtDT0=    0
 Petite list used in FoFCou.
 Harris En= -426.791053728878    
 JPrj=0 DoOrth=F DoCkMO=F.
 Leave Link  401 at Mon May 16 17:07:19 2022, MaxMem=  2147483648 cpu:         5.9
 (Enter /gpfs/runtime/opt/gaussian/g09-D01/g09/l502.exe)
 Closed shell SCF:
 Using DIIS extrapolation, IDIIS=  1040.
 Integral symmetry usage will be decided dynamically.
 Keep R1 ints in memory in canonical form, NReq=212224416.
 IVT=      142861 IEndB=      142861 NGot=  2147483648 MDV=  1941265337
 LenX=  1941265337 LenY=  1941224495
 Requested convergence on RMS density matrix=1.00D-08 within 128 cycles.
 Requested convergence on MAX density matrix=1.00D-06.
 Requested convergence on             energy=1.00D-06.
 No special actions if energy rises.
 FoFCou: FMM=F IPFlag=           0 FMFlag=           0 FMFlg1=           0
         NFxFlg=           0 DoJE=F BraDBF=F KetDBF=F FulRan=T
         wScrn=  0.000000 ICntrl=     600 IOpCl=  0 I1Cent=           0 NGrid=           0
         NMat0=    1 NMatS0=  20301 NMatT0=    0 NMatD0=    1 NMtDS0=    0 NMtDT0=    0
 Symmetry not used in FoFCou.

 Cycle   1  Pass 1  IDiag  1:
 PCMQM: There is more than one cavity, setting IComp=0.
 Inv3:  Mode=1 IEnd=     8039307.
 Iteration    1 A*A^-1 deviation from unit magnitude is 6.66D-15 for   1492.
 Iteration    1 A*A^-1 deviation from orthogonality  is 4.48D-15 for   1054    580.
 Iteration    1 A^-1*A deviation from unit magnitude is 6.44D-15 for     59.
 Iteration    1 A^-1*A deviation from orthogonality  is 1.93D-14 for    822    816.
 E= -426.899149904693    
 DIIS: error= 2.27D-02 at cycle   1 NSaved=   1.
 NSaved= 1 IEnMin= 1 EnMin= -426.899149904693     IErMin= 1 ErrMin= 2.27D-02
 ErrMax= 2.27D-02  0.00D+00 EMaxC= 1.00D-01 BMatC= 2.36D-01 BMatP= 2.36D-01
 IDIUse=3 WtCom= 7.73D-01 WtEn= 2.27D-01
 Coeff-Com:  0.100D+01
 Coeff-En:   0.100D+01
 Coeff:      0.100D+01
 Gap=     0.510 Goal=   None    Shift=    0.000
 GapD=    0.510 DampG=2.000 DampE=0.500 DampFc=1.0000 IDamp=-1.
 RMSDP=7.52D-03 MaxDP=3.68D-01              OVMax= 2.05D-01

 Cycle   2  Pass 1  IDiag  1:
 PCMQM: There is more than one cavity, setting IComp=0.
 E= -426.881521918495     Delta-E=        0.017627986199 Rises=F Damp=F
 DIIS: error= 3.38D-02 at cycle   2 NSaved=   2.
 NSaved= 2 IEnMin= 1 EnMin= -426.899149904693     IErMin= 1 ErrMin= 2.27D-02
 ErrMax= 3.38D-02  0.00D+00 EMaxC= 1.00D-01 BMatC= 2.58D-01 BMatP= 2.36D-01
 IDIUse=3 WtCom= 6.62D-01 WtEn= 3.38D-01
 Coeff-Com:  0.512D+00 0.488D+00
 Coeff-En:   0.525D+00 0.475D+00
 Coeff:      0.517D+00 0.483D+00
 Gap=     0.305 Goal=   None    Shift=    0.000
 RMSDP=4.82D-03 MaxDP=3.87D-01 DE= 1.76D-02 OVMax= 1.16D-01

 Cycle   3  Pass 1  IDiag  1:
 PCMQM: There is more than one cavity, setting IComp=0.
 E= -427.069441965661     Delta-E=       -0.187920047166 Rises=F Damp=F
 DIIS: error= 6.98D-03 at cycle   3 NSaved=   3.
 NSaved= 3 IEnMin= 3 EnMin= -427.069441965661     IErMin= 3 ErrMin= 6.98D-03
 ErrMax= 6.98D-03  0.00D+00 EMaxC= 1.00D-01 BMatC= 1.27D-02 BMatP= 2.36D-01
 IDIUse=3 WtCom= 9.30D-01 WtEn= 6.98D-02
 Coeff-Com:  0.133D+00 0.210D+00 0.658D+00
 Coeff-En:   0.000D+00 0.000D+00 0.100D+01
 Coeff:      0.123D+00 0.195D+00 0.682D+00
 Gap=     0.329 Goal=   None    Shift=    0.000
 RMSDP=7.98D-04 MaxDP=2.86D-02 DE=-1.88D-01 OVMax= 4.25D-02

 Cycle   4  Pass 1  IDiag  1:
 PCMQM: There is more than one cavity, setting IComp=0.
 E= -427.077698015496     Delta-E=       -0.008256049835 Rises=F Damp=F
 DIIS: error= 2.25D-03 at cycle   4 NSaved=   4.
 NSaved= 4 IEnMin= 4 EnMin= -427.077698015496     IErMin= 4 ErrMin= 2.25D-03
 ErrMax= 2.25D-03  0.00D+00 EMaxC= 1.00D-01 BMatC= 1.91D-03 BMatP= 1.27D-02
 IDIUse=3 WtCom= 9.78D-01 WtEn= 2.25D-02
 Coeff-Com:  0.368D-02 0.331D-01 0.320D+00 0.643D+00
 Coeff-En:   0.000D+00 0.000D+00 0.896D-01 0.910D+00
 Coeff:      0.360D-02 0.324D-01 0.315D+00 0.649D+00
 Gap=     0.321 Goal=   None    Shift=    0.000
 RMSDP=2.65D-04 MaxDP=8.35D-03 DE=-8.26D-03 OVMax= 9.86D-03

 Cycle   5  Pass 1  IDiag  1:
 PCMQM: There is more than one cavity, setting IComp=0.
 E= -427.079130406377     Delta-E=       -0.001432390881 Rises=F Damp=F
 DIIS: error= 3.43D-04 at cycle   5 NSaved=   5.
 NSaved= 5 IEnMin= 5 EnMin= -427.079130406377     IErMin= 5 ErrMin= 3.43D-04
 ErrMax= 3.43D-04  0.00D+00 EMaxC= 1.00D-01 BMatC= 6.74D-05 BMatP= 1.91D-03
 IDIUse=3 WtCom= 9.97D-01 WtEn= 3.43D-03
 Coeff-Com: -0.268D-02 0.640D-02 0.113D+00 0.284D+00 0.599D+00
 Coeff-En:   0.000D+00 0.000D+00 0.000D+00 0.000D+00 0.100D+01
 Coeff:     -0.267D-02 0.638D-02 0.113D+00 0.283D+00 0.600D+00
 Gap=     0.319 Goal=   None    Shift=    0.000
 RMSDP=6.82D-05 MaxDP=4.79D-03 DE=-1.43D-03 OVMax= 1.72D-03

 Cycle   6  Pass 1  IDiag  1:
 PCMQM: There is more than one cavity, setting IComp=0.
 E= -427.079180961941     Delta-E=       -0.000050555564 Rises=F Damp=F
 DIIS: error= 7.38D-05 at cycle   6 NSaved=   6.
 NSaved= 6 IEnMin= 6 EnMin= -427.079180961941     IErMin= 6 ErrMin= 7.38D-05
 ErrMax= 7.38D-05  0.00D+00 EMaxC= 1.00D-01 BMatC= 3.73D-06 BMatP= 6.74D-05
 IDIUse=1 WtCom= 1.00D+00 WtEn= 0.00D+00
 Coeff-Com: -0.123D-02-0.773D-03 0.130D-01 0.394D-01 0.212D+00 0.738D+00
 Coeff:     -0.123D-02-0.773D-03 0.130D-01 0.394D-01 0.212D+00 0.738D+00
 Gap=     0.320 Goal=   None    Shift=    0.000
 RMSDP=1.94D-05 MaxDP=7.09D-04 DE=-5.06D-05 OVMax= 4.12D-04

 Cycle   7  Pass 1  IDiag  1:
 PCMQM: There is more than one cavity, setting IComp=0.
 E= -427.079184258422     Delta-E=       -0.000003296480 Rises=F Damp=F
 DIIS: error= 2.85D-05 at cycle   7 NSaved=   7.
 NSaved= 7 IEnMin= 7 EnMin= -427.079184258422     IErMin= 7 ErrMin= 2.85D-05
 ErrMax= 2.85D-05  0.00D+00 EMaxC= 1.00D-01 BMatC= 2.33D-07 BMatP= 3.73D-06
 IDIUse=1 WtCom= 1.00D+00 WtEn= 0.00D+00
 Coeff-Com: -0.862D-05-0.919D-03-0.680D-02-0.189D-01-0.252D-02 0.136D+00
 Coeff-Com:  0.893D+00
 Coeff:     -0.862D-05-0.919D-03-0.680D-02-0.189D-01-0.252D-02 0.136D+00
 Coeff:      0.893D+00
 Gap=     0.320 Goal=   None    Shift=    0.000
 RMSDP=6.71D-06 MaxDP=1.93D-04 DE=-3.30D-06 OVMax= 2.24D-04

 Cycle   8  Pass 1  IDiag  1:
 PCMQM: There is more than one cavity, setting IComp=0.
 E= -427.079184574448     Delta-E=       -0.000000316027 Rises=F Damp=F
 DIIS: error= 6.85D-06 at cycle   8 NSaved=   8.
 NSaved= 8 IEnMin= 8 EnMin= -427.079184574448     IErMin= 8 ErrMin= 6.85D-06
 ErrMax= 6.85D-06  0.00D+00 EMaxC= 1.00D-01 BMatC= 3.08D-08 BMatP= 2.33D-07
 IDIUse=1 WtCom= 1.00D+00 WtEn= 0.00D+00
 Coeff-Com:  0.125D-03-0.223D-03-0.277D-02-0.928D-02-0.192D-01-0.374D-01
 Coeff-Com:  0.239D+00 0.830D+00
 Coeff:      0.125D-03-0.223D-03-0.277D-02-0.928D-02-0.192D-01-0.374D-01
 Coeff:      0.239D+00 0.830D+00
 Gap=     0.320 Goal=   None    Shift=    0.000
 RMSDP=2.31D-06 MaxDP=9.58D-05 DE=-3.16D-07 OVMax= 8.48D-05

 Cycle   9  Pass 1  IDiag  1:
 PCMQM: There is more than one cavity, setting IComp=0.
 E= -427.079184613628     Delta-E=       -0.000000039180 Rises=F Damp=F
 DIIS: error= 1.95D-06 at cycle   9 NSaved=   9.
 NSaved= 9 IEnMin= 9 EnMin= -427.079184613628     IErMin= 9 ErrMin= 1.95D-06
 ErrMax= 1.95D-06  0.00D+00 EMaxC= 1.00D-01 BMatC= 1.83D-09 BMatP= 3.08D-08
 IDIUse=1 WtCom= 1.00D+00 WtEn= 0.00D+00
 Coeff-Com:  0.192D-04 0.293D-04 0.295D-03 0.294D-03-0.213D-02-0.175D-01
 Coeff-Com: -0.464D-01 0.116D+00 0.949D+00
 Coeff:      0.192D-04 0.293D-04 0.295D-03 0.294D-03-0.213D-02-0.175D-01
 Coeff:     -0.464D-01 0.116D+00 0.949D+00
 Gap=     0.320 Goal=   None    Shift=    0.000
 RMSDP=7.20D-07 MaxDP=2.19D-05 DE=-3.92D-08 OVMax= 2.60D-05

 Cycle  10  Pass 1  IDiag  1:
 PCMQM: There is more than one cavity, setting IComp=0.
 E= -427.079184616136     Delta-E=       -0.000000002508 Rises=F Damp=F
 DIIS: error= 7.21D-07 at cycle  10 NSaved=  10.
 NSaved=10 IEnMin=10 EnMin= -427.079184616136     IErMin=10 ErrMin= 7.21D-07
 ErrMax= 7.21D-07  0.00D+00 EMaxC= 1.00D-01 BMatC= 3.78D-10 BMatP= 1.83D-09
 IDIUse=1 WtCom= 1.00D+00 WtEn= 0.00D+00
 Coeff-Com: -0.381D-06 0.275D-04 0.352D-03 0.802D-03 0.498D-03-0.491D-02
 Coeff-Com: -0.357D-01-0.651D-02 0.428D+00 0.617D+00
 Coeff:     -0.381D-06 0.275D-04 0.352D-03 0.802D-03 0.498D-03-0.491D-02
 Coeff:     -0.357D-01-0.651D-02 0.428D+00 0.617D+00
 Gap=     0.320 Goal=   None    Shift=    0.000
 RMSDP=1.76D-07 MaxDP=5.52D-06 DE=-2.51D-09 OVMax= 9.92D-06

 Cycle  11  Pass 1  IDiag  1:
 PCMQM: There is more than one cavity, setting IComp=0.
 E= -427.079184616525     Delta-E=       -0.000000000390 Rises=F Damp=F
 DIIS: error= 1.66D-07 at cycle  11 NSaved=  11.
 NSaved=11 IEnMin=11 EnMin= -427.079184616525     IErMin=11 ErrMin= 1.66D-07
 ErrMax= 1.66D-07  0.00D+00 EMaxC= 1.00D-01 BMatC= 2.17D-11 BMatP= 3.78D-10
 IDIUse=1 WtCom= 1.00D+00 WtEn= 0.00D+00
 Coeff-Com: -0.209D-05 0.414D-05 0.711D-04 0.194D-03 0.384D-03 0.685D-03
 Coeff-Com: -0.504D-02-0.195D-01 0.287D-02 0.176D+00 0.845D+00
 Coeff:     -0.209D-05 0.414D-05 0.711D-04 0.194D-03 0.384D-03 0.685D-03
 Coeff:     -0.504D-02-0.195D-01 0.287D-02 0.176D+00 0.845D+00
 Gap=     0.320 Goal=   None    Shift=    0.000
 RMSDP=6.98D-08 MaxDP=2.85D-06 DE=-3.90D-10 OVMax= 2.28D-06

 Cycle  12  Pass 1  IDiag  1:
 PCMQM: There is more than one cavity, setting IComp=0.
 E= -427.079184616551     Delta-E=       -0.000000000025 Rises=F Damp=F
 DIIS: error= 4.34D-08 at cycle  12 NSaved=  12.
 NSaved=12 IEnMin=12 EnMin= -427.079184616551     IErMin=12 ErrMin= 4.34D-08
 ErrMax= 4.34D-08  0.00D+00 EMaxC= 1.00D-01 BMatC= 1.21D-12 BMatP= 2.17D-11
 IDIUse=1 WtCom= 1.00D+00 WtEn= 0.00D+00
 Coeff-Com: -0.404D-06-0.488D-06 0.206D-05 0.708D-05 0.703D-04 0.414D-03
 Coeff-Com:  0.643D-03-0.412D-02-0.220D-01 0.331D-02 0.201D+00 0.821D+00
 Coeff:     -0.404D-06-0.488D-06 0.206D-05 0.708D-05 0.703D-04 0.414D-03
 Coeff:      0.643D-03-0.412D-02-0.220D-01 0.331D-02 0.201D+00 0.821D+00
 Gap=     0.320 Goal=   None    Shift=    0.000
 RMSDP=1.85D-08 MaxDP=9.57D-07 DE=-2.54D-11 OVMax= 3.02D-07

 Cycle  13  Pass 1  IDiag  1:
 PCMQM: There is more than one cavity, setting IComp=0.
 E= -427.079184616559     Delta-E=       -0.000000000009 Rises=F Damp=F
 DIIS: error= 1.98D-08 at cycle  13 NSaved=  13.
 NSaved=13 IEnMin=13 EnMin= -427.079184616559     IErMin=13 ErrMin= 1.98D-08
 ErrMax= 1.98D-08  0.00D+00 EMaxC= 1.00D-01 BMatC= 2.94D-13 BMatP= 1.21D-12
 IDIUse=1 WtCom= 1.00D+00 WtEn= 0.00D+00
 Coeff-Com:  0.442D-07-0.692D-06-0.622D-05-0.177D-04-0.108D-04 0.996D-04
 Coeff-Com:  0.830D-03 0.476D-03-0.104D-01-0.209D-01-0.396D-02 0.376D+00
 Coeff-Com:  0.658D+00
 Coeff:      0.442D-07-0.692D-06-0.622D-05-0.177D-04-0.108D-04 0.996D-04
 Coeff:      0.830D-03 0.476D-03-0.104D-01-0.209D-01-0.396D-02 0.376D+00
 Coeff:      0.658D+00
 Gap=     0.320 Goal=   None    Shift=    0.000
 RMSDP=4.90D-09 MaxDP=1.16D-07 DE=-8.53D-12 OVMax= 1.46D-07

 PCMQM: There is more than one cavity, setting IComp=0.
 Error on total polarization charges =  0.01852
 SCF Done:  E(RM062X) =  -427.079184617     A.U. after   13 cycles
            NFock= 13  Conv=0.49D-08     -V/T= 2.0087
 KE= 4.233954113241D+02 PE=-1.773564527775D+03 EE= 5.312072186180D+02
 SMD-CDS (non-electrostatic) energy       (kcal/mol) =       0.74
 (included in total energy above)
 Leave Link  502 at Mon May 16 17:07:35 2022, MaxMem=  2147483648 cpu:        99.8
 (Enter /gpfs/runtime/opt/gaussian/g09-D01/g09/l601.exe)
 Copying SCF densities to generalized density rwf, IOpCl= 0 IROHF=0.

 **********************************************************************

            Population analysis using the SCF density.

 **********************************************************************

 Orbital symmetries:
       Occupied  (A) (A) (A) (A) (A) (A) (A) (A) (A) (A) (A) (A)
                 (A) (A) (A) (A) (A) (A) (A) (A) (A) (A) (A) (A)
                 (A) (A) (A) (A) (A) (A) (A)
       Virtual   (A) (A) (A) (A) (A) (A) (A) (A) (A) (A) (A) (A)
                 (A) (A) (A) (A) (A) (A) (A) (A) (A) (A) (A) (A)
                 (A) (A) (A) (A) (A) (A) (A) (A) (A) (A) (A) (A)
                 (A) (A) (A) (A) (A) (A) (A) (A) (A) (A) (A) (A)
                 (A) (A) (A) (A) (A) (A) (A) (A) (A) (A) (A) (A)
                 (A) (A) (A) (A) (A) (A) (A) (A) (A) (A) (A) (A)
                 (A) (A) (A) (A) (A) (A) (A) (A) (A) (A) (A) (A)
                 (A) (A) (A) (A) (A) (A) (A) (A) (A) (A) (A) (A)
                 (A) (A) (A) (A) (A) (A) (A) (A) (A) (A) (A) (A)
                 (A) (A) (A) (A) (A) (A) (A) (A) (A) (A) (A) (A)
                 (A) (A) (A) (A) (A) (A) (A) (A) (A) (A) (A) (A)
                 (A) (A) (A) (A) (A) (A) (A) (A) (A) (A) (A) (A)
                 (A) (A) (A) (A) (A) (A) (A) (A) (A) (A) (A) (A)
                 (A) (A) (A) (A) (A) (A) (A) (A) (A) (A) (A) (A)
                 (A) (A)
 The electronic state is 1-A.
 Alpha  occ. eigenvalues --  -19.71335 -19.71303 -19.64154 -10.74140 -10.62918
 Alpha  occ. eigenvalues --  -10.61936 -10.55956 -10.54973  -2.22714  -1.29681
 Alpha  occ. eigenvalues --   -1.18115  -1.15852  -0.92318  -0.84801  -0.76487
 Alpha  occ. eigenvalues --   -0.70485  -0.66750  -0.61442  -0.59832  -0.58929
 Alpha  occ. eigenvalues --   -0.52971  -0.51974  -0.51322  -0.50123  -0.46804
 Alpha  occ. eigenvalues --   -0.44703  -0.43288  -0.38441  -0.38180  -0.37924
 Alpha  occ. eigenvalues --   -0.34016
 Alpha virt. eigenvalues --   -0.02047   0.00168   0.00423   0.00530   0.01721
 Alpha virt. eigenvalues --    0.02271   0.03460   0.04111   0.04784   0.04880
 Alpha virt. eigenvalues --    0.05434   0.05748   0.06078   0.07046   0.07257
 Alpha virt. eigenvalues --    0.08336   0.08577   0.09628   0.10003   0.10853
 Alpha virt. eigenvalues --    0.11320   0.11875   0.12687   0.14527   0.14973
 Alpha virt. eigenvalues --    0.15533   0.16225   0.16419   0.18215   0.18487
 Alpha virt. eigenvalues --    0.19140   0.20324   0.20840   0.22135   0.23652
 Alpha virt. eigenvalues --    0.24346   0.24777   0.25133   0.26342   0.27222
 Alpha virt. eigenvalues --    0.28109   0.29403   0.30264   0.30833   0.31449
 Alpha virt. eigenvalues --    0.31945   0.32369   0.33348   0.34752   0.36012
 Alpha virt. eigenvalues --    0.36375   0.38553   0.40298   0.41365   0.42811
 Alpha virt. eigenvalues --    0.43366   0.44556   0.46386   0.48374   0.51651
 Alpha virt. eigenvalues --    0.53136   0.54468   0.55528   0.56836   0.60021
 Alpha virt. eigenvalues --    0.67275   0.69599   0.71102   0.73204   0.75928
 Alpha virt. eigenvalues --    0.77506   0.79385   0.80463   0.85080   0.87605
 Alpha virt. eigenvalues --    0.89520   0.90613   0.93249   0.98080   0.99423
 Alpha virt. eigenvalues --    1.01432   1.04366   1.07654   1.09214   1.14275
 Alpha virt. eigenvalues --    1.15655   1.18084   1.21175   1.23787   1.25376
 Alpha virt. eigenvalues --    1.29656   1.31085   1.32041   1.35218   1.35388
 Alpha virt. eigenvalues --    1.36529   1.38384   1.40213   1.43017   1.44365
 Alpha virt. eigenvalues --    1.45431   1.48675   1.50322   1.52490   1.54005
 Alpha virt. eigenvalues --    1.61864   1.65507   1.69258   1.73074   1.75168
 Alpha virt. eigenvalues --    1.79734   1.85121   1.86681   1.88651   1.88776
 Alpha virt. eigenvalues --    1.91002   1.91778   1.95861   1.96712   1.99107
 Alpha virt. eigenvalues --    1.99636   2.03312   2.07432   2.09536   2.13717
 Alpha virt. eigenvalues --    2.15878   2.17774   2.19960   2.25600   2.30411
 Alpha virt. eigenvalues --    2.33256   2.40844   2.44331   2.46251   2.51648
 Alpha virt. eigenvalues --    2.52439   2.55122   2.56520   2.61490   2.62509
 Alpha virt. eigenvalues --    2.65059   2.66846   2.70000   2.71916   2.75351
 Alpha virt. eigenvalues --    2.81486   2.83822   2.87965   2.88580   2.90887
 Alpha virt. eigenvalues --    2.93787   2.96727   3.05200   3.11886   3.24404
 Alpha virt. eigenvalues --    3.25995   3.31190   3.33848   3.40955   3.46418
 Alpha virt. eigenvalues --    3.50849   3.69231   4.19494   4.35566   4.44406
 Alpha virt. eigenvalues --    4.48640   4.61378   4.65565   4.66607   4.78507
          Condensed to atoms (all electrons):
               1          2          3          4          5          6
     1  C    6.046431  -0.782515   0.277678   0.030385   0.042963  -0.004765
     2  C   -0.782515   7.020740  -0.330306  -0.092298  -0.062900  -0.016891
     3  C    0.277678  -0.330306   5.868707   0.398699   0.069193  -0.032263
     4  H    0.030385  -0.092298   0.398699   0.478245  -0.014227   0.001724
     5  C    0.042963  -0.062900   0.069193  -0.014227   5.327560   0.156435
     6  O   -0.004765  -0.016891  -0.032263   0.001724   0.156435   8.381523
     7  C   -0.049055   0.126870  -0.242954   0.009859  -0.111617   0.242247
     8  O    0.001959   0.014826  -0.018039  -0.000411   0.014967  -0.115110
     9  O   -0.013126  -0.130809   0.299744  -0.030955  -0.069418  -0.159203
    10  H    0.423943  -0.070332   0.009419   0.000245   0.000797   0.000042
    11  H    0.429226  -0.080338  -0.002280   0.002316   0.008475  -0.000110
    12  H    0.009636   0.314667  -0.002679   0.002281   0.006750  -0.000590
    13  H    0.013589  -0.010910  -0.036660  -0.004966   0.408658  -0.036317
    14  H   -0.034282   0.066654  -0.130856   0.002848   0.434004  -0.035692
    15  Li  -0.004291   0.003596  -0.002286   0.000037  -0.001013  -0.001073
               7          8          9         10         11         12
     1  C   -0.049055   0.001959  -0.013126   0.423943   0.429226   0.009636
     2  C    0.126870   0.014826  -0.130809  -0.070332  -0.080338   0.314667
     3  C   -0.242954  -0.018039   0.299744   0.009419  -0.002280  -0.002679
     4  H    0.009859  -0.000411  -0.030955   0.000245   0.002316   0.002281
     5  C   -0.111617   0.014967  -0.069418   0.000797   0.008475   0.006750
     6  O    0.242247  -0.115110  -0.159203   0.000042  -0.000110  -0.000590
     7  C    4.571202   0.488837   0.188907   0.000027  -0.000138  -0.002440
     8  O    0.488837   8.288049  -0.105850  -0.000003   0.000002  -0.000052
     9  O    0.188907  -0.105850   8.356780   0.000125   0.000377   0.001589
    10  H    0.000027  -0.000003   0.000125   0.476575  -0.023408  -0.004736
    11  H   -0.000138   0.000002   0.000377  -0.023408   0.476022   0.003293
    12  H   -0.002440  -0.000052   0.001589  -0.004736   0.003293   0.469670
    13  H    0.002983  -0.000415   0.003656   0.000005  -0.000041  -0.000025
    14  H    0.019132  -0.000419   0.005010  -0.000032   0.000054   0.001270
    15  Li  -0.000161  -0.000575  -0.001275   0.000001   0.000038   0.000201
              13         14         15
     1  C    0.013589  -0.034282  -0.004291
     2  C   -0.010910   0.066654   0.003596
     3  C   -0.036660  -0.130856  -0.002286
     4  H   -0.004966   0.002848   0.000037
     5  C    0.408658   0.434004  -0.001013
     6  O   -0.036317  -0.035692  -0.001073
     7  C    0.002983   0.019132  -0.000161
     8  O   -0.000415  -0.000419  -0.000575
     9  O    0.003656   0.005010  -0.001275
    10  H    0.000005  -0.000032   0.000001
    11  H   -0.000041   0.000054   0.000038
    12  H   -0.000025   0.001270   0.000201
    13  H    0.469363  -0.029858  -0.000044
    14  H   -0.029858   0.489325   0.000058
    15  Li  -0.000044   0.000058   2.001238
 Mulliken charges:
               1
     1  C   -0.387776
     2  C    0.029947
     3  C   -0.125116
     4  H    0.216218
     5  C   -0.210628
     6  O   -0.379958
     7  C    0.756301
     8  O   -0.567765
     9  O   -0.345552
    10  H    0.187333
    11  H    0.186513
    12  H    0.201166
    13  H    0.220982
    14  H    0.212787
    15  Li   1.005548
 Sum of Mulliken charges =   1.00000
 Mulliken charges with hydrogens summed into heavy atoms:
               1
     1  C   -0.013930
     2  C    0.231114
     3  C    0.091102
     5  C    0.223141
     6  O   -0.379958
     7  C    0.756301
     8  O   -0.567765
     9  O   -0.345552
    15  Li   1.005548
 Electronic spatial extent (au):  <R**2>=           1129.5729
 Charge=              1.0000 electrons
 Dipole moment (field-independent basis, Debye):
    X=             11.8384    Y=             19.0530    Z=              3.3372  Tot=             22.6782
 Quadrupole moment (field-independent basis, Debye-Ang):
   XX=            -51.5829   YY=             45.3030   ZZ=            -49.3106
   XY=             21.8427   XZ=             -3.9878   YZ=             -4.5187
 Traceless Quadrupole moment (field-independent basis, Debye-Ang):
   XX=            -33.0528   YY=             63.8332   ZZ=            -30.7804
   XY=             21.8427   XZ=             -3.9878   YZ=             -4.5187
 Octapole moment (field-independent basis, Debye-Ang**2):
  XXX=             56.1376  YYY=            395.0409  ZZZ=             12.4572  XYY=             94.2140
  XXY=             24.0282  XXZ=              4.5612  XZZ=              3.6131  YZZ=              7.5966
  YYZ=             -5.8644  XYZ=             -2.5802
 Hexadecapole moment (field-independent basis, Debye-Ang**3):
 XXXX=           -971.0005 YYYY=           1457.5878 ZZZZ=           -236.1474 XXXY=             57.3486
 XXXZ=            -47.6711 YYYX=            407.1556 YYYZ=            -40.9609 ZZZX=              2.6093
 ZZZY=             -8.3139 XXYY=            -76.6780 XXZZ=           -223.2245 YYZZ=            -63.3347
 XXYZ=             -5.4261 YYXZ=             -8.6271 ZZXY=             12.2647
 N-N= 3.918827132167D+02 E-N=-1.773564528756D+03  KE= 4.233954113241D+02
 No NMR shielding tensors so no spin-rotation constants.
 Leave Link  601 at Mon May 16 17:07:36 2022, MaxMem=  2147483648 cpu:         1.4
 (Enter /gpfs/runtime/opt/gaussian/g09-D01/g09/l701.exe)
 Compute integral first derivatives.
 ... and contract with generalized density number  0.
 R6Disp: Adding Grimme-D3 dispersion energy 1st derivatives to the gradient.
 D1PCM: PCM CHGder 1st derivatives, ID1Alg=3 FixD1E=F DoIter=F DoCFld=F I1PDM=0.
 GePol: Maximum number of non-zero 1st derivatives   =     310
 Leave Link  701 at Mon May 16 17:07:36 2022, MaxMem=  2147483648 cpu:         4.6
 (Enter /gpfs/runtime/opt/gaussian/g09-D01/g09/l702.exe)
 L702 exits ... SP integral derivatives will be done elsewhere.
 Leave Link  702 at Mon May 16 17:07:36 2022, MaxMem=  2147483648 cpu:         0.1
 (Enter /gpfs/runtime/opt/gaussian/g09-D01/g09/l703.exe)
 Compute integral first derivatives, UseDBF=F ICtDFT=           0.
 Integral derivatives from FoFJK, PRISM(SPDF).
 Calling FoFJK, ICntrl=      2127 FMM=F ISym2X=0 I1Cent= 0 IOpClX= 0 NMat=1 NMatS=1 NMatT=0.
 FoFJK:  IHMeth= 1 ICntrl=    2127 DoSepK=F KAlg= 0 I1Cent=   0 FoldK=F
 IRaf=         0 NMat=   1 IRICut=       1 DoRegI=T DoRafI=F ISym2E= 0.
 FoFCou: FMM=F IPFlag=           0 FMFlag=      100000 FMFlg1=         800
         NFxFlg=           0 DoJE=F BraDBF=F KetDBF=F FulRan=T
         wScrn=  0.000000 ICntrl=    2127 IOpCl=  0 I1Cent=           0 NGrid=           0
         NMat0=    1 NMatS0=      1 NMatT0=    0 NMatD0=    1 NMtDS0=    0 NMtDT0=    0
 Symmetry not used in FoFCou.
 Leave Link  703 at Mon May 16 17:07:39 2022, MaxMem=  2147483648 cpu:        20.8
 (Enter /gpfs/runtime/opt/gaussian/g09-D01/g09/l716.exe)
 Dipole        = 4.65759322D+00 7.49601029D+00 1.31297356D+00
 ***** Axes restored to original set *****
 -------------------------------------------------------------------
 Center     Atomic                   Forces (Hartrees/Bohr)
 Number     Number              X              Y              Z
 -------------------------------------------------------------------
      1        6           0.019964344    0.003253008   -0.002890025
      2        6          -0.021751419    0.003625197   -0.009064377
      3        6           0.004454659   -0.002875112    0.016942961
      4        1          -0.002599684    0.006047136   -0.001640760
      5        6          -0.005666598    0.006699835   -0.003597655
      6        8           0.018034697   -0.001827580   -0.004050739
      7        6          -0.025833394    0.014810281    0.003264595
      8        8           0.015017843   -0.008330788   -0.001862156
      9        8           0.005692118   -0.016891921   -0.001645368
     10        1           0.006310744   -0.000226181   -0.000336493
     11        1           0.005085990    0.001209512   -0.004664067
     12        1          -0.007585327   -0.001097832    0.005614589
     13        1          -0.005483717   -0.002120772    0.001714263
     14        1          -0.005721714   -0.002288440    0.002288347
     15        3           0.000081457    0.000013655   -0.000073115
 -------------------------------------------------------------------
 Cartesian Forces:  Max     0.025833394 RMS     0.008892391
 Leave Link  716 at Mon May 16 17:07:39 2022, MaxMem=  2147483648 cpu:         0.2
 (Enter /gpfs/runtime/opt/gaussian/g09-D01/g09/l103.exe)

 GradGradGradGradGradGradGradGradGradGradGradGradGradGradGradGradGradGrad
 Berny optimization.
 FormGI is forming the generalized inverse of G from B-inverse, IUseBI=4.
 Internal  Forces:  Max     0.032441716 RMS     0.006083199
 Search for a local minimum.
 Step number   1 out of a maximum of   79
 All quantities printed in internal units (Hartrees-Bohrs-Radians)
 RMS Force = .60832D-02 SwitMx=.10000D-02 MixMth= 1
 Mixed Optimization -- RFO/linear search
 Second derivative matrix not updated -- first step.
 ITU=  0
     Eigenvalues ---    0.00230   0.00230   0.00518   0.00674   0.00972
     Eigenvalues ---    0.01714   0.01716   0.02503   0.03279   0.03279
     Eigenvalues ---    0.04641   0.05212   0.05744   0.06091   0.07849
     Eigenvalues ---    0.10668   0.10786   0.15443   0.16000   0.16000
     Eigenvalues ---    0.16000   0.20540   0.22000   0.24661   0.25000
     Eigenvalues ---    0.27794   0.31658   0.34803   0.34807   0.34819
     Eigenvalues ---    0.35380   0.35989   0.35994   0.36002   0.37096
     Eigenvalues ---    0.53056   0.56192   0.64487   0.97952
 RFO step:  Lambda=-8.67919327D-03 EMin= 2.30000000D-03
 Linear search not attempted -- first point.
 Iteration  1 RMS(Cart)=  0.05830039 RMS(Int)=  0.00146710
 Iteration  2 RMS(Cart)=  0.00233426 RMS(Int)=  0.00062174
 Iteration  3 RMS(Cart)=  0.00000203 RMS(Int)=  0.00062174
 Iteration  4 RMS(Cart)=  0.00000000 RMS(Int)=  0.00062174
 ITry= 1 IFail=0 DXMaxC= 1.67D-01 DCOld= 1.00D+10 DXMaxT= 3.00D-01 DXLimC= 3.00D+00 Rises=F
 Variable       Old X    -DE/DX   Delta X   Delta X   Delta X     New X
                                 (Linear)    (Quad)   (Total)
    R1        2.47557   0.03244   0.00000   0.04964   0.04964   2.52521
    R2        2.04091   0.00441   0.00000   0.01195   0.01195   2.05286
    R3        2.04078   0.00544   0.00000   0.01476   0.01476   2.05554
    R4        2.84773  -0.00434   0.00000  -0.01335  -0.01335   2.83439
    R5        2.04099   0.00683   0.00000   0.01854   0.01854   2.05953
    R6        2.05990   0.00048   0.00000   0.00133   0.00133   2.06123
    R7        2.91175   0.00337   0.00000   0.01335   0.01313   2.92488
    R8        2.75415  -0.00750   0.00000  -0.01861  -0.01862   2.73553
    R9        2.75416  -0.01156   0.00000  -0.03067  -0.03077   2.72339
   R10        2.05996  -0.00020   0.00000  -0.00056  -0.00056   2.05940
   R11        2.05970   0.00029   0.00000   0.00080   0.00080   2.06050
   R12        2.52699  -0.00122   0.00000  -0.00311  -0.00295   2.52404
   R13        2.29470  -0.01726   0.00000  -0.01747  -0.01747   2.27723
   R14        2.53254  -0.00108   0.00000  -0.00237  -0.00216   2.53037
   R15        5.98164  -0.00008   0.00000  -0.00412  -0.00412   5.97752
    A1        2.09433   0.00293   0.00000   0.01738   0.01736   2.11169
    A2        2.09445   0.00295   0.00000   0.01750   0.01748   2.11192
    A3        2.09440  -0.00589   0.00000  -0.03493  -0.03496   2.05945
    A4        2.09438   0.00970   0.00000   0.04241   0.04222   2.13659
    A5        2.09445   0.00180   0.00000   0.01819   0.01797   2.11242
    A6        2.09435  -0.01149   0.00000  -0.06060  -0.06078   2.03357
    A7        1.92837  -0.00303   0.00000  -0.00166  -0.00389   1.92448
    A8        1.92932   0.00890   0.00000   0.05935   0.05881   1.98812
    A9        1.92939  -0.00032   0.00000  -0.00733  -0.00708   1.92232
   A10        1.92930   0.00170   0.00000   0.02674   0.02520   1.95450
   A11        1.92927  -0.00107   0.00000  -0.05116  -0.05088   1.87839
   A12        1.81553  -0.00617   0.00000  -0.02689  -0.02689   1.78865
   A13        1.81335   0.00113   0.00000   0.00564   0.00553   1.81889
   A14        1.92933   0.00462   0.00000   0.04132   0.04073   1.97006
   A15        1.92936   0.00418   0.00000   0.04159   0.04092   1.97029
   A16        1.92922  -0.00399   0.00000  -0.04334  -0.04358   1.88564
   A17        1.92940  -0.00434   0.00000  -0.04554  -0.04542   1.88398
   A18        1.93028  -0.00144   0.00000   0.00053  -0.00234   1.92794
   A19        1.90554   0.00560   0.00000   0.02073   0.02057   1.92611
   A20        2.14810   0.00437   0.00000   0.01741   0.01731   2.16540
   A21        1.98773  -0.00925   0.00000  -0.03675  -0.03661   1.95113
   A22        2.14735   0.00487   0.00000   0.01934   0.01924   2.16659
   A23        1.90262   0.00869   0.00000   0.03725   0.03725   1.93987
   A24        2.97116  -0.00001   0.00000  -0.00083  -0.00083   2.97033
   A25        2.96219  -0.00017   0.00000  -0.01542  -0.01542   2.94678
    D1        3.14157   0.00168   0.00000   0.04759   0.04807  -3.09355
    D2        0.00000   0.00071   0.00000   0.01018   0.00970   0.00970
    D3       -0.00484   0.00116   0.00000   0.03492   0.03540   0.03055
    D4        3.13677   0.00019   0.00000  -0.00249  -0.00297   3.13380
    D5       -0.01224  -0.00371   0.00000  -0.06365  -0.06319  -0.07544
    D6        2.12900   0.00246   0.00000   0.00974   0.01013   2.13913
    D7       -2.15350  -0.00005   0.00000   0.00740   0.00755  -2.14594
    D8        3.12933  -0.00274   0.00000  -0.02624  -0.02645   3.10288
    D9       -1.01261   0.00342   0.00000   0.04715   0.04687  -0.96574
   D10        0.98808   0.00092   0.00000   0.04481   0.04429   1.03237
   D11        2.07010  -0.00113   0.00000  -0.00795  -0.00837   2.06174
   D12       -2.14319  -0.00293   0.00000  -0.03556  -0.03667  -2.17986
   D13       -0.00002   0.00129   0.00000   0.02210   0.02203   0.02201
   D14       -2.07238   0.00228   0.00000   0.04893   0.04979  -2.02260
   D15       -0.00249   0.00048   0.00000   0.02132   0.02149   0.01900
   D16        2.14068   0.00470   0.00000   0.07898   0.08018   2.22086
   D17       -0.00122  -0.00163   0.00000  -0.01324  -0.01297  -0.01418
   D18        2.06868  -0.00343   0.00000  -0.04085  -0.04127   2.02741
   D19       -2.07134   0.00079   0.00000   0.01680   0.01743  -2.05391
   D20       -2.06910  -0.00481   0.00000  -0.03790  -0.03740  -2.10649
   D21        2.07336   0.00000   0.00000   0.00429   0.00479   2.07814
   D22        0.00217   0.00201   0.00000   0.01308   0.01292   0.01508
   D23       -0.00011   0.00076   0.00000   0.00940   0.00948   0.00937
   D24       -2.07007  -0.00336   0.00000  -0.02117  -0.01986  -2.08994
   D25        2.06999   0.00419   0.00000   0.03923   0.03815   2.10814
   D26       -3.14092  -0.00004   0.00000   0.01128   0.01121  -3.12972
   D27        0.00159   0.00052   0.00000  -0.00146  -0.00168  -0.00008
   D28       -0.00245  -0.00168   0.00000  -0.00792  -0.00783  -0.01027
   D29        3.14007  -0.00111   0.00000  -0.02065  -0.02072   3.11935
         Item               Value     Threshold  Converged?
 Maximum Force            0.032442     0.000450     NO 
 RMS     Force            0.006083     0.000300     NO 
 Maximum Displacement     0.167417     0.001800     NO 
 RMS     Displacement     0.058500     0.001200     NO 
 Predicted change in Energy=-4.630610D-03
 Lowest energy point so far.  Saving SCF results.
 GradGradGradGradGradGradGradGradGradGradGradGradGradGradGradGradGradGrad

 Leave Link  103 at Mon May 16 17:07:41 2022, MaxMem=  2147483648 cpu:        13.3
 (Enter /gpfs/runtime/opt/gaussian/g09-D01/g09/l202.exe)
                          Input orientation:                          
 ---------------------------------------------------------------------
 Center     Atomic      Atomic             Coordinates (Angstroms)
 Number     Number       Type             X           Y           Z
 ---------------------------------------------------------------------
      1          6           0        3.165469    0.452597    0.042391
      2          6           0        1.916429    0.251714    0.472737
      3          6           0        0.796685   -0.119325   -0.453645
      4          1           0        1.144930   -0.116670   -1.487313
      5          6           0        0.089854   -1.445675   -0.083762
      6          8           0       -1.269231   -1.056355    0.195967
      7          6           0       -1.419446    0.260134    0.027756
      8          8           0       -2.454895    0.849831    0.207407
      9          8           0       -0.276565    0.846560   -0.350256
     10          1           0        3.967911    0.677140    0.739362
     11          1           0        3.412393    0.380294   -1.014484
     12          1           0        1.669919    0.316943    1.532341
     13          1           0        0.073641   -2.160706   -0.906014
     14          1           0        0.498733   -1.907768    0.815237
     15          3           0        0.726073   -0.267115    4.494377
 ---------------------------------------------------------------------
                    Distance matrix (angstroms):
                    1          2          3          4          5
     1  C    0.000000
     2  C    1.336284   0.000000
     3  C    2.486822   1.499893   0.000000
     4  H    2.597428   2.138390   1.090758   0.000000
     5  C    3.616456   2.554837   1.547781   2.202135   0.000000
     6  O    4.686906   3.454863   2.359668   3.089436   1.441156
     7  C    4.588976   3.365433   2.299342   3.002239   2.280396
     8  O    5.636800   4.420024   3.456736   4.094501   3.439458
     9  O    3.486686   2.416688   1.447580   2.059456   2.336583
    10  H    1.086325   2.112027   3.480560   3.682043   4.497021
    11  H    1.087742   2.113355   2.721413   2.368951   3.903802
    12  H    2.115426   1.089855   2.212919   3.095472   2.866220
    13  H    4.157911   3.334155   2.212389   2.379843   1.089785
    14  H    3.644186   2.605864   2.212999   2.987866   1.090372
    15  Li   5.127262   4.226076   4.950732   5.998224   4.770024
                    6          7          8          9         10
     6  O    0.000000
     7  C    1.335666   0.000000
     8  O    2.244877   1.205060   0.000000
     9  O    2.214685   1.339016   2.248581   0.000000
    10  H    5.543279   5.450128   6.447111   4.385379   0.000000
    11  H    5.044478   4.944429   6.011535   3.777171   1.863516
    12  H    3.508625   3.436740   4.365032   2.759251   2.457504
    13  H    2.058461   2.993611   4.086139   3.078175   5.091756
    14  H    2.057692   2.999889   4.086285   3.089625   4.326974
    15  Li   4.804213   4.983166   5.453827   5.071097   5.049878
                   11         12         13         14         15
    11  H    0.000000
    12  H    3.086511   0.000000
    13  H    4.197108   3.825236   0.000000
    14  H    4.131891   2.614432   1.790918   0.000000
    15  Li   6.163035   3.163166   5.759824   4.034785   0.000000
 Stoichiometry    C5H6LiO3(1+)
 Framework group  C1[X(C5H6LiO3)]
 Deg. of freedom    39
 Full point group                 C1      NOp   1
 RotChk:  IX=0 Diff= 7.92D-02
 Largest Abelian subgroup         C1      NOp   1
 Largest concise Abelian subgroup C1      NOp   1
                         Standard orientation:                         
 ---------------------------------------------------------------------
 Center     Atomic      Atomic             Coordinates (Angstroms)
 Number     Number       Type             X           Y           Z
 ---------------------------------------------------------------------
      1          6           0        3.028524   -0.394606   -0.385232
      2          6           0        1.802791    0.123922   -0.265393
      3          6           0        0.624318   -0.691837    0.176666
      4          1           0        0.912173   -1.737004    0.297162
      5          6           0       -0.085648   -0.137561    1.435377
      6          8           0       -1.418431    0.171676    0.982615
      7          6           0       -1.552439   -0.133989   -0.310681
      8          8           0       -2.564072    0.035661   -0.943126
      9          8           0       -0.422126   -0.637791   -0.822094
     10          1           0        3.874163    0.227452   -0.664592
     11          1           0        3.212445   -1.448818   -0.190312
     12          1           0        1.619305    1.181610   -0.453575
     13          1           0       -0.163329   -0.872620    2.236180
     14          1           0        0.365466    0.783430    1.805760
     15          3           0        0.837175    4.238001   -0.224738
 ---------------------------------------------------------------------
 Rotational constants (GHZ):      2.2223943      1.1608655      1.0000601
 Leave Link  202 at Mon May 16 17:07:41 2022, MaxMem=  2147483648 cpu:         0.4
 (Enter /gpfs/runtime/opt/gaussian/g09-D01/g09/l301.exe)
 Standard basis: 6-31+G(d,p) (6D, 7F)
 Ernie: Thresh=  0.10000D-02 Tol=  0.10000D-05 Strict=F.
 There are   201 symmetry adapted cartesian basis functions of A   symmetry.
 There are   201 symmetry adapted basis functions of A   symmetry.
   201 basis functions,   330 primitive gaussians,   201 cartesian basis functions
    31 alpha electrons       31 beta electrons
       nuclear repulsion energy       391.5602530652 Hartrees.
 IExCor= 4336 DFT=T Ex+Corr=M062X ExCW=0 ScaHFX=  0.540000
 ScaDFX=  1.000000  1.000000  1.000000  1.000000 ScalE2=  1.000000  1.000000
 IRadAn=      0 IRanWt=     -1 IRanGd=            0 ICorTp=0 IEmpDi=131
 NAtoms=   15 NActive=   15 NUniq=   15 SFac= 1.00D+00 NAtFMM=   60 NAOKFM=F Big=F
 Integral buffers will be    131072 words long.
 Raffenetti 2 integral format.
 Two-electron integral symmetry is turned on.
 R6Disp:  Grimme-D3 Dispersion energy=       -0.0005557498 Hartrees.
 Nuclear repulsion after empirical dispersion term =      391.5596973154 Hartrees.
 ------------------------------------------------------------------------------
 Polarizable Continuum Model (PCM)
 =================================
 Model                : PCM (using non-symmetric T matrix).
 Atomic radii         : SMD-Coulomb.
 Polarization charges : Total charges.
 Charge compensation  : None.
 Solution method      : On-the-fly selection.
 Cavity type          : VdW (van der Waals Surface) (Alpha=1.000).
 Cavity algorithm     : GePol (No added spheres)
                        Default sphere list used, NSphG=   15.
                        Lebedev-Laikov grids with approx.  5.0 points / Ang**2.
                        Smoothing algorithm: Karplus/York (Gamma=1.0000).
                        Polarization charges: spherical gaussians, with
                                              point-specific exponents (IZeta= 3).
                        Self-potential: point-specific (ISelfS= 7).
                        Self-field    : sphere-specific E.n sum rule (ISelfD= 2).
 1st derivatives      : Analytical E(r).r(x)/FMM algorithm (CHGder, D1EAlg=3).
                        Cavity 1st derivative terms included.
 Solvent              : DiMethylSulfoxide, Eps=  46.826000 Eps(inf)=   2.007889
 ------------------------------------------------------------------------------
 Spheres list:
 ISph  on   Nord     Re0    Alpha      Xe            Ye            Ze
    1   C      1    1.8500  1.000      3.028524     -0.394606     -0.385232
    2   C      2    1.8500  1.000      1.802791      0.123922     -0.265393
    3   C      3    1.8500  1.000      0.624318     -0.691837      0.176666
    4   H      4    1.2000  1.000      0.912173     -1.737004      0.297162
    5   C      5    1.8500  1.000     -0.085648     -0.137561      1.435377
    6   O      6    2.2940  1.000     -1.418431      0.171676      0.982615
    7   C      7    1.8500  1.000     -1.552439     -0.133989     -0.310681
    8   O      8    2.2940  1.000     -2.564072      0.035661     -0.943126
    9   O      9    2.2940  1.000     -0.422126     -0.637791     -0.822094
   10   H     10    1.2000  1.000      3.874163      0.227452     -0.664592
   11   H     11    1.2000  1.000      3.212445     -1.448818     -0.190312
   12   H     12    1.2000  1.000      1.619305      1.181610     -0.453575
   13   H     13    1.2000  1.000     -0.163329     -0.872620      2.236180
   14   H     14    1.2000  1.000      0.365466      0.783430      1.805760
   15  Li     15    1.8200  1.000      0.837175      4.238001     -0.224738
 ------------------------------------------------------------------------------
 Separa: There are  2 disjoint cavities,
 GePol: Number of generator spheres                  =      15
 GePol: Total number of spheres                      =      15
 GePol: Number of exposed spheres                    =      15 (100.00%)
 GePol: Number of points                             =    1633
 GePol: Average weight of points                     =       0.13
 GePol: Minimum weight of points                     =   0.22D-09
 GePol: Maximum weight of points                     =    0.17992
 GePol: Number of points with low weight             =      40
 GePol: Fraction of low-weight points (<1% of avg)   =       2.45%
 ------------------------------------------------------------------------------
 Atomic radii for non-electrostatic terms: SMD-CDS.
 ------------------------------------------------------------------------------
 PCM non-electrostatic energy =         0.0012606579 Hartrees.
 Nuclear repulsion after PCM non-electrostatic terms =      391.5609579733 Hartrees.
 Leave Link  301 at Mon May 16 17:07:41 2022, MaxMem=  2147483648 cpu:         0.6
 (Enter /gpfs/runtime/opt/gaussian/g09-D01/g09/l302.exe)
 NPDir=0 NMtPBC=     1 NCelOv=     1 NCel=       1 NClECP=     1 NCelD=      1
         NCelK=      1 NCelE2=     1 NClLst=     1 CellRange=     0.0.
 One-electron integrals computed using PRISM.
 NBasis=   201 RedAO= T EigKep=  2.81D-05  NBF=   201
 NBsUse=   201 1.00D-06 EigRej= -1.00D+00 NBFU=   201
 Precomputing XC quadrature grid using
 IXCGrd= 4 IRadAn=           0 IRanWt=          -1 IRanGd=           0 AccXCQ= 0.00D+00.
 Generated NRdTot=       0 NPtTot=           0 NUsed=           0 NTot=          32
 NSgBfM=   201   201   201   201   201 MxSgAt=    15 MxSgA2=    15.
 Leave Link  302 at Mon May 16 17:07:41 2022, MaxMem=  2147483648 cpu:         1.0
 (Enter /gpfs/runtime/opt/gaussian/g09-D01/g09/l303.exe)
 DipDrv:  MaxL=1.
 Leave Link  303 at Mon May 16 17:07:42 2022, MaxMem=  2147483648 cpu:         0.7
 (Enter /gpfs/runtime/opt/gaussian/g09-D01/g09/l401.exe)
 Initial guess from the checkpoint file:  "/gpfs/data/yqi27/cgu13/CHEM1560Q/Gaussian/4427-96-7/inp3/Gau-109482.chk"
 B after Tr=     0.000000    0.000000    0.000000
         Rot=    0.999620    0.024258    0.005693   -0.011785 Ang=   3.16 deg.
 Guess basis will be translated and rotated to current coordinates.
 JPrj=2 DoOrth=T DoCkMO=T.
 Generating alternative initial guess.
 ExpMin= 7.40D-03 ExpMax= 5.48D+03 ExpMxC= 8.25D+02 IAcc=3 IRadAn=         5 AccDes= 0.00D+00
 Harris functional with IExCor= 1009 and IRadAn=       5 diagonalized for initial guess.
 HarFok:  IExCor= 1009 AccDes= 0.00D+00 IRadAn=         5 IDoV= 1 UseB2=F ITyADJ=14
 ICtDFT=  3500011 ScaDFX=  1.000000  1.000000  1.000000  1.000000
 FoFCou: FMM=F IPFlag=           0 FMFlag=      100000 FMFlg1=           0
         NFxFlg=           0 DoJE=T BraDBF=F KetDBF=T FulRan=T
         wScrn=  0.000000 ICntrl=     500 IOpCl=  0 I1Cent=   200000004 NGrid=           0
         NMat0=    1 NMatS0=      1 NMatT0=    0 NMatD0=    1 NMtDS0=    0 NMtDT0=    0
 Petite list used in FoFCou.
 Harris En= -426.787924417844    
 Leave Link  401 at Mon May 16 17:07:42 2022, MaxMem=  2147483648 cpu:         6.0
 (Enter /gpfs/runtime/opt/gaussian/g09-D01/g09/l502.exe)
 Closed shell SCF:
 Using DIIS extrapolation, IDIIS=  1040.
 Integral symmetry usage will be decided dynamically.
 Keep R1 ints in memory in canonical form, NReq=212210124.
 IVT=      142861 IEndB=      142861 NGot=  2147483648 MDV=  1941265337
 LenX=  1941265337 LenY=  1941224495
 Requested convergence on RMS density matrix=1.00D-08 within 128 cycles.
 Requested convergence on MAX density matrix=1.00D-06.
 Requested convergence on             energy=1.00D-06.
 No special actions if energy rises.
 FoFCou: FMM=F IPFlag=           0 FMFlag=           0 FMFlg1=           0
         NFxFlg=           0 DoJE=F BraDBF=F KetDBF=F FulRan=T
         wScrn=  0.000000 ICntrl=     600 IOpCl=  0 I1Cent=           0 NGrid=           0
         NMat0=    1 NMatS0=  20301 NMatT0=    0 NMatD0=    1 NMtDS0=    0 NMtDT0=    0
 Symmetry not used in FoFCou.

 Cycle   1  Pass 1  IDiag  1:
 PCMQM: There is more than one cavity, setting IComp=0.
 Inv3:  Mode=1 IEnd=     8000067.
 Iteration    1 A*A^-1 deviation from unit magnitude is 6.88D-15 for    599.
 Iteration    1 A*A^-1 deviation from orthogonality  is 3.17D-15 for   1444   1216.
 Iteration    1 A^-1*A deviation from unit magnitude is 5.88D-15 for    438.
 Iteration    1 A^-1*A deviation from orthogonality  is 2.06D-12 for    759    730.
 E= -427.080487150076    
 DIIS: error= 1.31D-03 at cycle   1 NSaved=   1.
 NSaved= 1 IEnMin= 1 EnMin= -427.080487150076     IErMin= 1 ErrMin= 1.31D-03
 ErrMax= 1.31D-03  0.00D+00 EMaxC= 1.00D-01 BMatC= 1.75D-03 BMatP= 1.75D-03
 IDIUse=3 WtCom= 9.87D-01 WtEn= 1.31D-02
 Coeff-Com:  0.100D+01
 Coeff-En:   0.100D+01
 Coeff:      0.100D+01
 Gap=     0.626 Goal=   None    Shift=    0.000
 GapD=    0.626 DampG=2.000 DampE=1.000 DampFc=2.0000 IDamp=-1.
 RMSDP=1.03D-03 MaxDP=6.34D-02              OVMax= 9.83D-03

 Cycle   2  Pass 1  IDiag  1:
 PCMQM: There is more than one cavity, setting IComp=0.
 E= -427.083090117503     Delta-E=       -0.002602967427 Rises=F Damp=F
 DIIS: error= 4.06D-04 at cycle   2 NSaved=   2.
 NSaved= 2 IEnMin= 2 EnMin= -427.083090117503     IErMin= 2 ErrMin= 4.06D-04
 ErrMax= 4.06D-04  0.00D+00 EMaxC= 1.00D-01 BMatC= 1.30D-04 BMatP= 1.75D-03
 IDIUse=3 WtCom= 9.96D-01 WtEn= 4.06D-03
 Coeff-Com:  0.157D-01 0.984D+00
 Coeff-En:   0.000D+00 0.100D+01
 Coeff:      0.157D-01 0.984D+00
 Gap=     0.318 Goal=   None    Shift=    0.000
 RMSDP=1.86D-04 MaxDP=1.06D-02 DE=-2.60D-03 OVMax= 3.71D-03

 Cycle   3  Pass 1  IDiag  1:
 PCMQM: There is more than one cavity, setting IComp=0.
 E= -427.083179265564     Delta-E=       -0.000089148061 Rises=F Damp=F
 DIIS: error= 4.61D-04 at cycle   3 NSaved=   3.
 NSaved= 3 IEnMin= 3 EnMin= -427.083179265564     IErMin= 2 ErrMin= 4.06D-04
 ErrMax= 4.61D-04  0.00D+00 EMaxC= 1.00D-01 BMatC= 1.05D-04 BMatP= 1.30D-04
 IDIUse=3 WtCom= 9.95D-01 WtEn= 4.61D-03
 Coeff-Com: -0.622D-01 0.494D+00 0.569D+00
 Coeff-En:   0.000D+00 0.160D+00 0.840D+00
 Coeff:     -0.619D-01 0.492D+00 0.570D+00
 Gap=     0.317 Goal=   None    Shift=    0.000
 RMSDP=7.02D-05 MaxDP=2.04D-03 DE=-8.91D-05 OVMax= 2.36D-03

 Cycle   4  Pass 1  IDiag  1:
 PCMQM: There is more than one cavity, setting IComp=0.
 E= -427.083258099751     Delta-E=       -0.000078834187 Rises=F Damp=F
 DIIS: error= 1.39D-04 at cycle   4 NSaved=   4.
 NSaved= 4 IEnMin= 4 EnMin= -427.083258099751     IErMin= 4 ErrMin= 1.39D-04
 ErrMax= 1.39D-04  0.00D+00 EMaxC= 1.00D-01 BMatC= 7.52D-06 BMatP= 1.05D-04
 IDIUse=3 WtCom= 9.99D-01 WtEn= 1.39D-03
 Coeff-Com: -0.277D-01 0.117D+00 0.256D+00 0.655D+00
 Coeff-En:   0.000D+00 0.000D+00 0.000D+00 0.100D+01
 Coeff:     -0.277D-01 0.117D+00 0.255D+00 0.656D+00
 Gap=     0.316 Goal=   None    Shift=    0.000
 RMSDP=2.11D-05 MaxDP=7.23D-04 DE=-7.88D-05 OVMax= 6.83D-04

 Cycle   5  Pass 1  IDiag  1:
 PCMQM: There is more than one cavity, setting IComp=0.
 E= -427.083263905847     Delta-E=       -0.000005806096 Rises=F Damp=F
 DIIS: error= 3.26D-05 at cycle   5 NSaved=   5.
 NSaved= 5 IEnMin= 5 EnMin= -427.083263905847     IErMin= 5 ErrMin= 3.26D-05
 ErrMax= 3.26D-05  0.00D+00 EMaxC= 1.00D-01 BMatC= 5.88D-07 BMatP= 7.52D-06
 IDIUse=1 WtCom= 1.00D+00 WtEn= 0.00D+00
 Coeff-Com: -0.322D-02-0.138D-01 0.319D-01 0.253D+00 0.732D+00
 Coeff:     -0.322D-02-0.138D-01 0.319D-01 0.253D+00 0.732D+00
 Gap=     0.316 Goal=   None    Shift=    0.000
 RMSDP=8.65D-06 MaxDP=4.93D-04 DE=-5.81D-06 OVMax= 2.44D-04

 Cycle   6  Pass 1  IDiag  1:
 PCMQM: There is more than one cavity, setting IComp=0.
 E= -427.083264547580     Delta-E=       -0.000000641733 Rises=F Damp=F
 DIIS: error= 8.54D-06 at cycle   6 NSaved=   6.
 NSaved= 6 IEnMin= 6 EnMin= -427.083264547580     IErMin= 6 ErrMin= 8.54D-06
 ErrMax= 8.54D-06  0.00D+00 EMaxC= 1.00D-01 BMatC= 4.24D-08 BMatP= 5.88D-07
 IDIUse=1 WtCom= 1.00D+00 WtEn= 0.00D+00
 Coeff-Com:  0.138D-02-0.154D-01-0.128D-01 0.254D-01 0.239D+00 0.763D+00
 Coeff:      0.138D-02-0.154D-01-0.128D-01 0.254D-01 0.239D+00 0.763D+00
 Gap=     0.316 Goal=   None    Shift=    0.000
 RMSDP=2.39D-06 MaxDP=8.27D-05 DE=-6.42D-07 OVMax= 7.34D-05

 Cycle   7  Pass 1  IDiag  1:
 PCMQM: There is more than one cavity, setting IComp=0.
 E= -427.083264590176     Delta-E=       -0.000000042596 Rises=F Damp=F
 DIIS: error= 3.80D-06 at cycle   7 NSaved=   7.
 NSaved= 7 IEnMin= 7 EnMin= -427.083264590176     IErMin= 7 ErrMin= 3.80D-06
 ErrMax= 3.80D-06  0.00D+00 EMaxC= 1.00D-01 BMatC= 1.11D-08 BMatP= 4.24D-08
 IDIUse=1 WtCom= 1.00D+00 WtEn= 0.00D+00
 Coeff-Com:  0.101D-02-0.620D-02-0.101D-01-0.152D-01 0.409D-01 0.394D+00
 Coeff-Com:  0.596D+00
 Coeff:      0.101D-02-0.620D-02-0.101D-01-0.152D-01 0.409D-01 0.394D+00
 Coeff:      0.596D+00
 Gap=     0.316 Goal=   None    Shift=    0.000
 RMSDP=9.32D-07 MaxDP=3.77D-05 DE=-4.26D-08 OVMax= 2.75D-05

 Cycle   8  Pass 1  IDiag  1:
 PCMQM: There is more than one cavity, setting IComp=0.
 E= -427.083264600539     Delta-E=       -0.000000010363 Rises=F Damp=F
 DIIS: error= 6.71D-07 at cycle   8 NSaved=   8.
 NSaved= 8 IEnMin= 8 EnMin= -427.083264600539     IErMin= 8 ErrMin= 6.71D-07
 ErrMax= 6.71D-07  0.00D+00 EMaxC= 1.00D-01 BMatC= 3.22D-10 BMatP= 1.11D-08
 IDIUse=1 WtCom= 1.00D+00 WtEn= 0.00D+00
 Coeff-Com:  0.550D-04 0.518D-03-0.672D-03-0.615D-02-0.179D-01-0.641D-02
 Coeff-Com:  0.111D+00 0.919D+00
 Coeff:      0.550D-04 0.518D-03-0.672D-03-0.615D-02-0.179D-01-0.641D-02
 Coeff:      0.111D+00 0.919D+00
 Gap=     0.316 Goal=   None    Shift=    0.000
 RMSDP=3.17D-07 MaxDP=1.12D-05 DE=-1.04D-08 OVMax= 1.05D-05

 Cycle   9  Pass 1  IDiag  1:
 PCMQM: There is more than one cavity, setting IComp=0.
 E= -427.083264601052     Delta-E=       -0.000000000513 Rises=F Damp=F
 DIIS: error= 2.98D-07 at cycle   9 NSaved=   9.
 NSaved= 9 IEnMin= 9 EnMin= -427.083264601052     IErMin= 9 ErrMin= 2.98D-07
 ErrMax= 2.98D-07  0.00D+00 EMaxC= 1.00D-01 BMatC= 8.57D-11 BMatP= 3.22D-10
 IDIUse=1 WtCom= 1.00D+00 WtEn= 0.00D+00
 Coeff-Com: -0.717D-04 0.838D-03 0.658D-03-0.148D-02-0.121D-01-0.397D-01
 Coeff-Com: -0.379D-02 0.414D+00 0.642D+00
 Coeff:     -0.717D-04 0.838D-03 0.658D-03-0.148D-02-0.121D-01-0.397D-01
 Coeff:     -0.379D-02 0.414D+00 0.642D+00
 Gap=     0.316 Goal=   None    Shift=    0.000
 RMSDP=1.03D-07 MaxDP=2.61D-06 DE=-5.13D-10 OVMax= 3.73D-06

 Cycle  10  Pass 1  IDiag  1:
 PCMQM: There is more than one cavity, setting IComp=0.
 E= -427.083264601157     Delta-E=       -0.000000000105 Rises=F Damp=F
 DIIS: error= 8.30D-08 at cycle  10 NSaved=  10.
 NSaved=10 IEnMin=10 EnMin= -427.083264601157     IErMin=10 ErrMin= 8.30D-08
 ErrMax= 8.30D-08  0.00D+00 EMaxC= 1.00D-01 BMatC= 6.22D-12 BMatP= 8.57D-11
 IDIUse=1 WtCom= 1.00D+00 WtEn= 0.00D+00
 Coeff-Com: -0.307D-04 0.219D-03 0.305D-03 0.237D-03-0.187D-02-0.123D-01
 Coeff-Com: -0.138D-01 0.257D-01 0.214D+00 0.788D+00
 Coeff:     -0.307D-04 0.219D-03 0.305D-03 0.237D-03-0.187D-02-0.123D-01
 Coeff:     -0.138D-01 0.257D-01 0.214D+00 0.788D+00
 Gap=     0.316 Goal=   None    Shift=    0.000
 RMSDP=2.58D-08 MaxDP=5.90D-07 DE=-1.05D-10 OVMax= 1.11D-06

 Cycle  11  Pass 1  IDiag  1:
 PCMQM: There is more than one cavity, setting IComp=0.
 E= -427.083264601166     Delta-E=       -0.000000000010 Rises=F Damp=F
 DIIS: error= 4.02D-08 at cycle  11 NSaved=  11.
 NSaved=11 IEnMin=11 EnMin= -427.083264601166     IErMin=11 ErrMin= 4.02D-08
 ErrMax= 4.02D-08  0.00D+00 EMaxC= 1.00D-01 BMatC= 7.88D-13 BMatP= 6.22D-12
 IDIUse=1 WtCom= 1.00D+00 WtEn= 0.00D+00
 Coeff-Com: -0.219D-05-0.197D-04 0.283D-04 0.236D-03 0.693D-03 0.433D-03
 Coeff-Com: -0.421D-02-0.387D-01 0.326D-02 0.285D+00 0.753D+00
 Coeff:     -0.219D-05-0.197D-04 0.283D-04 0.236D-03 0.693D-03 0.433D-03
 Coeff:     -0.421D-02-0.387D-01 0.326D-02 0.285D+00 0.753D+00
 Gap=     0.316 Goal=   None    Shift=    0.000
 RMSDP=9.46D-09 MaxDP=3.39D-07 DE=-9.78D-12 OVMax= 4.35D-07

 PCMQM: There is more than one cavity, setting IComp=0.
 Error on total polarization charges =  0.01898
 SCF Done:  E(RM062X) =  -427.083264601     A.U. after   11 cycles
            NFock= 11  Conv=0.95D-08     -V/T= 2.0088
 KE= 4.233486052810D+02 PE=-1.772822345994D+03 EE= 5.308295181383D+02
 SMD-CDS (non-electrostatic) energy       (kcal/mol) =       0.79
 (included in total energy above)
 Leave Link  502 at Mon May 16 17:07:56 2022, MaxMem=  2147483648 cpu:        87.6
 (Enter /gpfs/runtime/opt/gaussian/g09-D01/g09/l701.exe)
 Compute integral first derivatives.
 ... and contract with generalized density number  0.
 R6Disp: Adding Grimme-D3 dispersion energy 1st derivatives to the gradient.
 D1PCM: PCM CHGder 1st derivatives, ID1Alg=3 FixD1E=F DoIter=F DoCFld=F I1PDM=0.
 GePol: Maximum number of non-zero 1st derivatives   =     313
 Leave Link  701 at Mon May 16 17:07:57 2022, MaxMem=  2147483648 cpu:         5.4
 (Enter /gpfs/runtime/opt/gaussian/g09-D01/g09/l702.exe)
 L702 exits ... SP integral derivatives will be done elsewhere.
 Leave Link  702 at Mon May 16 17:07:57 2022, MaxMem=  2147483648 cpu:         0.1
 (Enter /gpfs/runtime/opt/gaussian/g09-D01/g09/l703.exe)
 Compute integral first derivatives, UseDBF=F ICtDFT=           0.
 Integral derivatives from FoFJK, PRISM(SPDF).
[...]
 ! A12   A(5,3,9)              102.6104         -DE/DX =    0.0                 !
 ! A13   A(3,5,6)              104.202          -DE/DX =   -0.0002              !
 ! A14   A(3,5,13)             112.5881         -DE/DX =   -0.0003              !
 ! A15   A(3,5,14)             112.6988         -DE/DX =   -0.0001              !
 ! A16   A(6,5,13)             108.4007         -DE/DX =    0.0002              !
 ! A17   A(6,5,14)             108.2544         -DE/DX =    0.0003              !
 ! A18   A(13,5,14)            110.3489         -DE/DX =    0.0001              !
 ! A19   A(5,6,7)              110.5016         -DE/DX =    0.0002              !
 ! A20   A(6,7,8)              124.2205         -DE/DX =   -0.0003              !
 ! A21   A(6,7,9)              111.5877         -DE/DX =    0.0                 !
 ! A22   A(8,7,9)              124.1916         -DE/DX =    0.0002              !
 ! A23   A(3,9,7)              111.0959         -DE/DX =    0.0                 !
 ! A24   L(2,12,15,6,-1)       165.8849         -DE/DX =    0.0002              !
 ! A25   L(2,12,15,6,-2)       183.0262         -DE/DX =    0.0014              !
 ! D1    D(10,1,2,3)          -178.3222         -DE/DX =    0.0                 !
 ! D2    D(10,1,2,12)            0.2993         -DE/DX =    0.0001              !
 ! D3    D(11,1,2,3)             1.2711         -DE/DX =   -0.0002              !
 ! D4    D(11,1,2,12)          179.8927         -DE/DX =   -0.0001              !
 ! D5    D(1,2,3,4)             -3.4321         -DE/DX =   -0.0002              !
 ! D6    D(1,2,3,5)            123.593          -DE/DX =    0.0002              !
 ! D7    D(1,2,3,9)           -121.9388         -DE/DX =   -0.0002              !
 ! D8    D(12,2,3,4)           177.8812         -DE/DX =   -0.0002              !
 ! D9    D(12,2,3,5)           -55.0937         -DE/DX =    0.0001              !
 ! D10   D(12,2,3,9)            59.3745         -DE/DX =   -0.0003              !
 ! D11   D(2,3,5,6)            119.0607         -DE/DX =   -0.0002              !
 ! D12   D(2,3,5,13)          -123.6845         -DE/DX =   -0.0002              !
 ! D13   D(2,3,5,14)             1.9251         -DE/DX =   -0.0004              !
 ! D14   D(4,3,5,6)           -114.4846         -DE/DX =    0.0002              !
 ! D15   D(4,3,5,13)             2.7702         -DE/DX =    0.0002              !
 ! D16   D(4,3,5,14)           128.3798         -DE/DX =    0.0                 !
 ! D17   D(9,3,5,6)              0.457          -DE/DX =    0.0003              !
 ! D18   D(9,3,5,13)           117.7118         -DE/DX =    0.0003              !
 ! D19   D(9,3,5,14)          -116.6786         -DE/DX =    0.0001              !
 ! D20   D(2,3,9,7)           -121.9564         -DE/DX =    0.0003              !
 ! D21   D(4,3,9,7)            117.6249         -DE/DX =    0.0                 !
 ! D22   D(5,3,9,7)             -0.3423         -DE/DX =   -0.0002              !
 ! D23   D(3,5,6,7)             -0.4451         -DE/DX =   -0.0003              !
 ! D24   D(13,5,6,7)          -120.5611         -DE/DX =    0.0                 !
 ! D25   D(14,5,6,7)           119.7284         -DE/DX =   -0.0004              !
 ! D26   D(5,6,7,8)           -179.9041         -DE/DX =    0.0                 !
 ! D27   D(5,6,7,9)              0.2501         -DE/DX =    0.0001              !
 ! D28   D(6,7,9,3)              0.081          -DE/DX =    0.0001              !
 ! D29   D(8,7,9,3)           -179.7648         -DE/DX =    0.0002              !
 --------------------------------------------------------------------------------
 GradGradGradGradGradGradGradGradGradGradGradGradGradGradGradGradGradGrad

 Largest change from initial coordinates is atom   15       1.144 Angstoms.
 Leave Link  103 at Mon May 16 17:33:27 2022, MaxMem=  2147483648 cpu:         1.8
 (Enter /gpfs/runtime/opt/gaussian/g09-D01/g09/l202.exe)
                          Input orientation:                          
 ---------------------------------------------------------------------
 Center     Atomic      Atomic             Coordinates (Angstroms)
 Number     Number       Type             X           Y           Z
 ---------------------------------------------------------------------
      1          6           0        3.265135    0.029967    0.191793
      2          6           0        1.988090   -0.042162    0.567198
      3          6           0        0.863017   -0.080352   -0.416298
      4          1           0        1.243660    0.016488   -1.435813
      5          6           0       -0.066389   -1.304031   -0.272836
      6          8           0       -1.356889   -0.735970    0.008362
      7          6           0       -1.283160    0.600289    0.050828
      8          8           0       -2.215493    1.323792    0.271148
      9          8           0       -0.034459    1.030095   -0.180506
     10          1           0        4.070487    0.035724    0.920505
     11          1           0        3.539050    0.082127   -0.860210
     12          1           0        1.710782   -0.089747    1.621762
     13          1           0       -0.138171   -1.884783   -1.191779
     14          1           0        0.210643   -1.950430    0.562453
     15          3           0        0.245598   -0.069407    4.395493
 ---------------------------------------------------------------------
                    Distance matrix (angstroms):
                    1          2          3          4          5
     1  C    0.000000
     2  C    1.333033   0.000000
     3  C    2.480346   1.494829   0.000000
     4  H    2.595312   2.137679   1.092556   0.000000
     5  C    3.618630   2.553205   1.543297   2.193744   0.000000
     6  O    4.688648   3.461582   2.353328   3.068337   1.437760
     7  C    4.586080   3.373494   2.299468   2.989271   2.282919
     8  O    5.631835   4.429852   3.452742   4.072897   3.438025
     9  O    3.467879   2.408215   1.447119   2.058344   2.336169
    10  H    1.086115   2.113591   3.476835   3.680157   4.509185
    11  H    1.088330   2.111497   2.717465   2.367371   3.907126
    12  H    2.115456   1.091452   2.207370   3.094875   2.867460
    13  H    4.142830   3.318169   2.204478   2.363016   1.089442
    14  H    3.659137   2.607840   2.209239   2.988136   1.091919
    15  Li   5.176733   4.206288   4.851253   5.916724   4.838897
                    6          7          8          9         10
     6  O    0.000000
     7  C    1.338965   0.000000
     8  O    2.246971   1.200518   0.000000
     9  O    2.214380   1.340710   2.246588   0.000000
    10  H    5.557331   5.453128   6.449366   4.364811   0.000000
    11  H    5.039238   4.934794   5.994704   3.759070   1.858904
    12  H    3.525801   3.450750   4.386102   2.747377   2.464896
    13  H    2.060433   3.005105   4.092723   3.087061   5.085558
    14  H    2.058904   2.999896   4.085527   3.081492   4.355618
    15  Li   4.717964   4.654214   5.000820   4.714562   5.168788
                   11         12         13         14         15
    11  H    0.000000
    12  H    3.087441   0.000000
    13  H    4.183376   3.815337   0.000000
    14  H    4.151332   2.614325   1.789780   0.000000
    15  Li   6.204208   3.136999   5.887315   4.269855   0.000000
 Stoichiometry    C5H6LiO3(1+)
 Framework group  C1[X(C5H6LiO3)]
 Deg. of freedom    39
 Full point group                 C1      NOp   1
 RotChk:  IX=0 Diff= 1.35D-15
 Largest Abelian subgroup         C1      NOp   1
 Largest concise Abelian subgroup C1      NOp   1
                         Standard orientation:                         
 ---------------------------------------------------------------------
 Center     Atomic      Atomic             Coordinates (Angstroms)
 Number     Number       Type             X           Y           Z
 ---------------------------------------------------------------------
      1          6           0        3.058138   -0.108725   -0.422244
      2          6           0        1.821912    0.279214   -0.108834
      3          6           0        0.671321   -0.673433   -0.053018
      4          1           0        0.989160   -1.674124   -0.355130
      5          6           0       -0.068490   -0.699133    1.301155
      6          8           0       -1.412693   -0.305651    0.976436
      7          6           0       -1.526852   -0.060119   -0.334864
      8          8           0       -2.541500    0.289196   -0.873113
      9          8           0       -0.362886   -0.250179   -0.972488
     10          1           0        3.885896    0.594290   -0.437419
     11          1           0        3.275313   -1.146021   -0.669862
     12          1           0        1.600847    1.319816    0.135187
     13          1           0       -0.097844   -1.694552    1.742928
     14          1           0        0.333684    0.020668    2.016997
     15          3           0        0.271136    4.095391    0.742484
 ---------------------------------------------------------------------
 Rotational constants (GHZ):      2.2869477      1.1743767      1.0200858
 Leave Link  202 at Mon May 16 17:33:27 2022, MaxMem=  2147483648 cpu:         0.4
 (Enter /gpfs/runtime/opt/gaussian/g09-D01/g09/l601.exe)
 Copying SCF densities to generalized density rwf, IOpCl= 0 IROHF=0.

 **********************************************************************

            Population analysis using the SCF density.

 **********************************************************************

 Orbital symmetries:
       Occupied  (A) (A) (A) (A) (A) (A) (A) (A) (A) (A) (A) (A)
                 (A) (A) (A) (A) (A) (A) (A) (A) (A) (A) (A) (A)
                 (A) (A) (A) (A) (A) (A) (A)
       Virtual   (A) (A) (A) (A) (A) (A) (A) (A) (A) (A) (A) (A)
                 (A) (A) (A) (A) (A) (A) (A) (A) (A) (A) (A) (A)
                 (A) (A) (A) (A) (A) (A) (A) (A) (A) (A) (A) (A)
                 (A) (A) (A) (A) (A) (A) (A) (A) (A) (A) (A) (A)
                 (A) (A) (A) (A) (A) (A) (A) (A) (A) (A) (A) (A)
                 (A) (A) (A) (A) (A) (A) (A) (A) (A) (A) (A) (A)
                 (A) (A) (A) (A) (A) (A) (A) (A) (A) (A) (A) (A)
                 (A) (A) (A) (A) (A) (A) (A) (A) (A) (A) (A) (A)
                 (A) (A) (A) (A) (A) (A) (A) (A) (A) (A) (A) (A)
                 (A) (A) (A) (A) (A) (A) (A) (A) (A) (A) (A) (A)
                 (A) (A) (A) (A) (A) (A) (A) (A) (A) (A) (A) (A)
                 (A) (A) (A) (A) (A) (A) (A) (A) (A) (A) (A) (A)
                 (A) (A) (A) (A) (A) (A) (A) (A) (A) (A) (A) (A)
                 (A) (A) (A) (A) (A) (A) (A) (A) (A) (A) (A) (A)
                 (A) (A)
 The electronic state is 1-A.
 Alpha  occ. eigenvalues --  -19.70920 -19.70863 -19.64491 -10.74061 -10.62923
 Alpha  occ. eigenvalues --  -10.61869 -10.56513 -10.55705  -2.22721  -1.29966
 Alpha  occ. eigenvalues --   -1.17969  -1.16915  -0.92013  -0.84650  -0.76921
 Alpha  occ. eigenvalues --   -0.70417  -0.67006  -0.61694  -0.59774  -0.58587
 Alpha  occ. eigenvalues --   -0.53343  -0.51921  -0.51350  -0.50416  -0.46310
 Alpha  occ. eigenvalues --   -0.44602  -0.43408  -0.38737  -0.38584  -0.37692
 Alpha  occ. eigenvalues --   -0.33759
 Alpha virt. eigenvalues --   -0.02112   0.00170   0.00382   0.00502   0.01643
 Alpha virt. eigenvalues --    0.01826   0.03590   0.04153   0.04788   0.04933
 Alpha virt. eigenvalues --    0.05381   0.05846   0.06104   0.07082   0.07480
 Alpha virt. eigenvalues --    0.08383   0.08608   0.09549   0.10014   0.11021
 Alpha virt. eigenvalues --    0.11564   0.11908   0.12805   0.14170   0.14860
 Alpha virt. eigenvalues --    0.15427   0.16289   0.16697   0.18147   0.18385
 Alpha virt. eigenvalues --    0.18953   0.20496   0.21150   0.22654   0.24016
 Alpha virt. eigenvalues --    0.24258   0.24913   0.25736   0.26281   0.27696
 Alpha virt. eigenvalues --    0.28125   0.29437   0.30429   0.30783   0.31399
 Alpha virt. eigenvalues --    0.32063   0.32563   0.33430   0.34944   0.35397
 Alpha virt. eigenvalues --    0.36523   0.38353   0.40745   0.41607   0.42827
 Alpha virt. eigenvalues --    0.44003   0.44914   0.46128   0.48424   0.51655
 Alpha virt. eigenvalues --    0.52792   0.54601   0.57118   0.58081   0.59660
 Alpha virt. eigenvalues --    0.67744   0.68827   0.71222   0.73198   0.75512
 Alpha virt. eigenvalues --    0.78347   0.79299   0.81462   0.85330   0.86272
 Alpha virt. eigenvalues --    0.89673   0.92291   0.93375   0.97886   0.99054
 Alpha virt. eigenvalues --    1.01855   1.04179   1.07769   1.09068   1.14274
 Alpha virt. eigenvalues --    1.15290   1.17854   1.20626   1.22633   1.25767
 Alpha virt. eigenvalues --    1.27903   1.31072   1.32119   1.35059   1.35469
 Alpha virt. eigenvalues --    1.36543   1.39142   1.40660   1.42796   1.43813
 Alpha virt. eigenvalues --    1.46076   1.49327   1.50412   1.53307   1.54402
 Alpha virt. eigenvalues --    1.61469   1.64888   1.67708   1.73888   1.76607
 Alpha virt. eigenvalues --    1.79993   1.84497   1.86394   1.88513   1.89844
 Alpha virt. eigenvalues --    1.90930   1.91909   1.95919   1.97943   1.98873
 Alpha virt. eigenvalues --    2.00702   2.03988   2.06228   2.10872   2.13499
 Alpha virt. eigenvalues --    2.16463   2.18140   2.20605   2.23591   2.30020
 Alpha virt. eigenvalues --    2.32787   2.38929   2.44419   2.46680   2.49876
 Alpha virt. eigenvalues --    2.50771   2.53046   2.55562   2.62083   2.63077
 Alpha virt. eigenvalues --    2.63969   2.67143   2.68646   2.71740   2.76825
 Alpha virt. eigenvalues --    2.81375   2.84588   2.88132   2.88536   2.90862
 Alpha virt. eigenvalues --    2.94014   2.98170   3.06309   3.15456   3.25793
 Alpha virt. eigenvalues --    3.26754   3.28391   3.33517   3.40541   3.43721
 Alpha virt. eigenvalues --    3.49549   3.68527   4.21620   4.34887   4.44852
 Alpha virt. eigenvalues --    4.48499   4.60609   4.65001   4.66886   4.79072
          Condensed to atoms (all electrons):
               1          2          3          4          5          6
     1  C    5.843535  -0.632779   0.387699   0.019296  -0.014927  -0.001920
     2  C   -0.632779   6.966754  -0.475337  -0.089677   0.022191  -0.017857
     3  C    0.387699  -0.475337   5.863965   0.409771   0.044640  -0.031950
     4  H    0.019296  -0.089677   0.409771   0.484433  -0.012694   0.001325
     5  C   -0.014927   0.022191   0.044640  -0.012694   5.304896   0.147078
     6  O   -0.001920  -0.017857  -0.031950   0.001325   0.147078   8.404281
     7  C   -0.020256   0.074228  -0.189783   0.011201  -0.113089   0.256983
     8  O    0.000806   0.017358  -0.019084  -0.000530   0.015294  -0.113806
     9  O   -0.009696  -0.120221   0.265480  -0.037705  -0.066766  -0.170440
    10  H    0.420680  -0.067951   0.011081   0.000179  -0.000090   0.000031
    11  H    0.415890  -0.073234   0.005572   0.002257   0.006863  -0.000077
    12  H   -0.001681   0.315225   0.002174   0.002680   0.007525  -0.000708
    13  H    0.011638  -0.013937  -0.026615  -0.004687   0.406184  -0.042151
    14  H   -0.025235   0.062441  -0.128548   0.002588   0.441297  -0.041996
    15  Li  -0.004629   0.005720  -0.004922   0.000007  -0.000193  -0.001726
               7          8          9         10         11         12
     1  C   -0.020256   0.000806  -0.009696   0.420680   0.415890  -0.001681
     2  C    0.074228   0.017358  -0.120221  -0.067951  -0.073234   0.315225
     3  C   -0.189783  -0.019084   0.265480   0.011081   0.005572   0.002174
     4  H    0.011201  -0.000530  -0.037705   0.000179   0.002257   0.002680
     5  C   -0.113089   0.015294  -0.066766  -0.000090   0.006863   0.007525
     6  O    0.256983  -0.113806  -0.170440   0.000031  -0.000077  -0.000708
     7  C    4.542202   0.486652   0.202529   0.000263  -0.000053  -0.002249
     8  O    0.486652   8.271622  -0.105236  -0.000003   0.000000  -0.000115
     9  O    0.202529  -0.105236   8.388982   0.000058   0.000377   0.002833
    10  H    0.000263  -0.000003   0.000058   0.472362  -0.024316  -0.004036
    11  H   -0.000053   0.000000   0.000377  -0.024316   0.473931   0.002954
    12  H   -0.002249  -0.000115   0.002833  -0.004036   0.002954   0.475992
    13  H    0.006540  -0.000441   0.003160   0.000003  -0.000022  -0.000023
    14  H    0.013943  -0.000291   0.005038  -0.000014   0.000025   0.001165
    15  Li  -0.001704  -0.000523  -0.001688  -0.000033   0.000060   0.000488
              13         14         15
     1  C    0.011638  -0.025235  -0.004629
     2  C   -0.013937   0.062441   0.005720
     3  C   -0.026615  -0.128548  -0.004922
     4  H   -0.004687   0.002588   0.000007
     5  C    0.406184   0.441297  -0.000193
     6  O   -0.042151  -0.041996  -0.001726
     7  C    0.006540   0.013943  -0.001704
     8  O   -0.000441  -0.000291  -0.000523
     9  O    0.003160   0.005038  -0.001688
    10  H    0.000003  -0.000014  -0.000033
    11  H   -0.000022   0.000025   0.000060
    12  H   -0.000023   0.001165   0.000488
    13  H    0.471789  -0.029530  -0.000064
    14  H   -0.029530   0.489017  -0.000009
    15  Li  -0.000064  -0.000009   2.001792
 Mulliken charges:
               1
     1  C   -0.388422
     2  C    0.027076
     3  C   -0.114143
     4  H    0.211553
     5  C   -0.188209
     6  O   -0.387067
     7  C    0.732595
     8  O   -0.551704
     9  O   -0.356704
    10  H    0.191786
    11  H    0.189773
    12  H    0.197776
    13  H    0.218156
    14  H    0.210110
    15  Li   1.007423
 Sum of Mulliken charges =   1.00000
 Mulliken charges with hydrogens summed into heavy atoms:
               1
     1  C   -0.006862
     2  C    0.224851
     3  C    0.097410
     5  C    0.240057
     6  O   -0.387067
     7  C    0.732595
     8  O   -0.551704
     9  O   -0.356704
    15  Li   1.007423
 Electronic spatial extent (au):  <R**2>=           1123.8754
 Charge=              1.0000 electrons
 Dipole moment (field-independent basis, Debye):
    X=              7.9386    Y=             17.4301    Z=              6.8354  Tot=             20.3360
 Quadrupole moment (field-independent basis, Debye-Ang):
   XX=            -54.9219   YY=             38.8033   ZZ=            -47.3251
   XY=              6.2117   XZ=             -2.3866   YZ=             14.8201
 Traceless Quadrupole moment (field-independent basis, Debye-Ang):
   XX=            -33.7740   YY=             59.9512   ZZ=            -26.1772
   XY=              6.2117   XZ=             -2.3866   YZ=             14.8201
 Octapole moment (field-independent basis, Debye-Ang**2):
  XXX=             47.7247  YYY=            347.0063  ZZZ=             17.4757  XYY=             23.2412
  XXY=              4.1298  XXZ=              3.9921  XZZ=              1.6595  YZZ=             15.0580
  YYZ=             63.3280  XYZ=              3.9109
 Hexadecapole moment (field-independent basis, Debye-Ang**3):
 XXXX=           -965.6576 YYYY=           1204.2339 ZZZZ=           -229.3070 XXXY=             23.4267
 XXXZ=            -42.3825 YYYX=             93.4072 YYYZ=            260.0811 ZZZX=              4.9316
 ZZZY=             22.5592 XXYY=           -167.3276 XXZZ=           -223.9589 YYZZ=            -16.7286
 XXYZ=             17.1032 YYXZ=             14.5040 ZZXY=              4.8458
 N-N= 3.924105974331D+02 E-N=-1.774381881795D+03  KE= 4.233819132754D+02
 No NMR shielding tensors so no spin-rotation constants.
 Leave Link  601 at Mon May 16 17:33:27 2022, MaxMem=  2147483648 cpu:         0.6
 (Enter /gpfs/runtime/opt/gaussian/g09-D01/g09/l9999.exe)


 IF NO USE IS MADE OF THE LABOR OF PAST AGES,
 THE WORLD MUST REMAIN ALWAYS IN THE INFANCY OF KNOWLEDGE.

                          -- CICERO
 Error termination request processed by link 9999.
 Error termination via Lnk1e in /gpfs/runtime/opt/gaussian/g09-D01/g09/l9999.exe at Mon May 16 17:33:27 2022.
 Job cpu time:       0 days  2 hours 51 minutes 32.9 seconds.
 File lengths (MBytes):  RWF=    588 Int=      0 D2E=      0 Chk=     12 Scr=      8
