 Entering Gaussian System, Link 0=g09
 Initial command:
 /gpfs/runtime/opt/gaussian/g09-D01/g09/l1.exe "/gpfs/data/yqi27/cgu13/CHEM1560Q/Gaussian/4427-96-7/inp0/Gau-76991.inp" -scrdir="/gpfs/data/yqi27/cgu13/CHEM1560Q/Gaussian/4427-96-7/inp0/"
 Entering Link 1 = /gpfs/runtime/opt/gaussian/g09-D01/g09/l1.exe PID=     76992.
  
 Copyright (c) 1988,1990,1992,1993,1995,1998,2003,2009,2013,
            Gaussian, Inc.  All Rights Reserved.
  
 This is part of the Gaussian(R) 09 program.  It is based on
 the Gaussian(R) 03 system (copyright 2003, Gaussian, Inc.),
 the Gaussian(R) 98 system (copyright 1998, Gaussian, Inc.),
 the Gaussian(R) 94 system (copyright 1995, Gaussian, Inc.),
 the Gaussian 92(TM) system (copyright 1992, Gaussian, Inc.),
 the Gaussian 90(TM) system (copyright 1990, Gaussian, Inc.),
 the Gaussian 88(TM) system (copyright 1988, Gaussian, Inc.),
 the Gaussian 86(TM) system (copyright 1986, Carnegie Mellon
 University), and the Gaussian 82(TM) system (copyright 1983,
 Carnegie Mellon University). Gaussian is a federally registered
 trademark of Gaussian, Inc.
  
 This software contains proprietary and confidential information,
 including trade secrets, belonging to Gaussian, Inc.
  
 This software is provided under written license and may be
 used, copied, transmitted, or stored only in accord with that
 written license.
  
 The following legend is applicable only to US Government
 contracts under FAR:
  
                    RESTRICTED RIGHTS LEGEND
  
 Use, reproduction and disclosure by the US Government is
 subject to restrictions as set forth in subparagraphs (a)
 and (c) of the Commercial Computer Software - Restricted
 Rights clause in FAR 52.227-19.
  
 Gaussian, Inc.
 340 Quinnipiac St., Bldg. 40, Wallingford CT 06492
  
  
 ---------------------------------------------------------------
 Warning -- This program may not be used in any manner that
 competes with the business of Gaussian, Inc. or will provide
 assistance to any competitor of Gaussian, Inc.  The licensee
 of this program is prohibited from giving any competitor of
 Gaussian, Inc. access to this program.  By using this program,
 the user acknowledges that Gaussian, Inc. is engaged in the
 business of creating and licensing software in the field of
 computational chemistry and represents and warrants to the
 licensee that it is not a competitor of Gaussian, Inc. and that
 it will not use this program in any manner prohibited above.
 ---------------------------------------------------------------
  

 Cite this work as:
 Gaussian 09, Revision D.01,
 M. J. Frisch, G. W. Trucks, H. B. Schlegel, G. E. Scuseria, 
 M. A. Robb, J. R. Cheeseman, G. Scalmani, V. Barone, B. Mennucci, 
 G. A. Petersson, H. Nakatsuji, M. Caricato, X. Li, H. P. Hratchian, 
 A. F. Izmaylov, J. Bloino, G. Zheng, J. L. Sonnenberg, M. Hada, 
 M. Ehara, K. Toyota, R. Fukuda, J. Hasegawa, M. Ishida, T. Nakajima, 
 Y. Honda, O. Kitao, H. Nakai, T. Vreven, J. A. Montgomery, Jr., 
 J. E. Peralta, F. Ogliaro, M. Bearpark, J. J. Heyd, E. Brothers, 
 K. N. Kudin, V. N. Staroverov, T. Keith, R. Kobayashi, J. Normand, 
 K. Raghavachari, A. Rendell, J. C. Burant, S. S. Iyengar, J. Tomasi, 
 M. Cossi, N. Rega, J. M. Millam, M. Klene, J. E. Knox, J. B. Cross, 
 V. Bakken, C. Adamo, J. Jaramillo, R. Gomperts, R. E. Stratmann, 
 O. Yazyev, A. J. Austin, R. Cammi, C. Pomelli, J. W. Ochterski, 
 R. L. Martin, K. Morokuma, V. G. Zakrzewski, G. A. Voth, 
 P. Salvador, J. J. Dannenberg, S. Dapprich, A. D. Daniels, 
 O. Farkas, J. B. Foresman, J. V. Ortiz, J. Cioslowski, 
 and D. J. Fox, Gaussian, Inc., Wallingford CT, 2013.
 
 ******************************************
 Gaussian 09:  EM64L-G09RevD.01 24-Apr-2013
                16-May-2022 
 ******************************************
 %Mem=16GB
 %NProcShared=8
 Will use up to    8 processors via shared memory.
 ----------------------------------------------------------------------
 #P M062X/6-31+G** EmpiricalDispersion=GD3 SCRF(SMD,solvent=DiMethylSul
 foxide) Opt Freq
 ----------------------------------------------------------------------
 1/14=-1,18=20,19=15,26=3,38=1/1,3;
 2/9=110,12=2,17=6,18=5,40=1/2;
 3/5=1,6=6,7=111,11=2,16=1,25=1,30=1,70=32201,71=1,72=21,74=-55,124=31/1,2,3;
 4//1;
 5/5=2,38=5,53=21/2;
 6/7=2,8=2,9=2,10=2,28=1/1;
 7//1,2,3,16;
 1/14=-1,18=20,19=15,26=3/3(2);
 2/9=110/2;
 99//99;
 2/9=110/2;
 3/5=1,6=6,7=111,11=2,16=1,25=1,30=1,70=32205,71=1,72=21,74=-55,124=31/1,2,3;
 4/5=5,16=3,69=1/1;
 5/5=2,38=5,53=21/2;
 7//1,2,3,16;
 1/14=-1,18=20,19=15,26=3/3(-5);
 2/9=110/2;
 6/7=2,8=2,9=2,10=2,19=2,28=1/1;
 99/9=1/99;
 Leave Link    1 at Mon May 16 16:20:49 2022, MaxMem=  2147483648 cpu:         0.8
 (Enter /gpfs/runtime/opt/gaussian/g09-D01/g09/l101.exe)
 ---------
 4427-96-7
 ---------
 Symbolic Z-matrix:
 Charge =  0 Multiplicity = 1
 C                     3.1116    0.4034    0.0615 
 C                     1.8904    0.2228    0.4999 
 C                     0.7805   -0.0914   -0.4698 
 H                     1.1621   -0.1191   -1.4905 
 C                     0.1086   -1.4298   -0.1073 
 O                    -1.2726   -1.0622    0.1778 
 C                    -1.4177    0.2576    0.0189 
 O                    -2.472     0.8342    0.1936 
 O                    -0.2938    0.8864   -0.3519 
 H                     3.907     0.6286    0.7565 
 H                     3.3238    0.3227   -0.9943 
 H                     1.679     0.2991    1.5563 
 H                     0.1544   -2.1211   -0.9489 
 H                     0.5778   -1.867     0.774 
 
 NAtoms=     14 NQM=       14 NQMF=       0 NMMI=      0 NMMIF=      0
                NMic=       0 NMicF=      0.
                    Isotopes and Nuclear Properties:
 (Nuclear quadrupole moments (NQMom) in fm**2, nuclear magnetic moments (NMagM)
  in nuclear magnetons)

  Atom         1           2           3           4           5           6           7           8           9          10
 IAtWgt=          12          12          12           1          12          16          12          16          16           1
 AtmWgt=  12.0000000  12.0000000  12.0000000   1.0078250  12.0000000  15.9949146  12.0000000  15.9949146  15.9949146   1.0078250
 NucSpn=           0           0           0           1           0           0           0           0           0           1
 AtZEff=   0.0000000   0.0000000   0.0000000   0.0000000   0.0000000   0.0000000   0.0000000   0.0000000   0.0000000   0.0000000
 NQMom=    0.0000000   0.0000000   0.0000000   0.0000000   0.0000000   0.0000000   0.0000000   0.0000000   0.0000000   0.0000000
 NMagM=    0.0000000   0.0000000   0.0000000   2.7928460   0.0000000   0.0000000   0.0000000   0.0000000   0.0000000   2.7928460
 AtZNuc=   6.0000000   6.0000000   6.0000000   1.0000000   6.0000000   8.0000000   6.0000000   8.0000000   8.0000000   1.0000000

  Atom        11          12          13          14
 IAtWgt=           1           1           1           1
 AtmWgt=   1.0078250   1.0078250   1.0078250   1.0078250
 NucSpn=           1           1           1           1
 AtZEff=   0.0000000   0.0000000   0.0000000   0.0000000
 NQMom=    0.0000000   0.0000000   0.0000000   0.0000000
 NMagM=    2.7928460   2.7928460   2.7928460   2.7928460
 AtZNuc=   1.0000000   1.0000000   1.0000000   1.0000000
 Leave Link  101 at Mon May 16 16:20:50 2022, MaxMem=  2147483648 cpu:         2.0
 (Enter /gpfs/runtime/opt/gaussian/g09-D01/g09/l103.exe)

 GradGradGradGradGradGradGradGradGradGradGradGradGradGradGradGradGradGrad
 Berny optimization.
 Initialization pass.
                           ----------------------------
                           !    Initial Parameters    !
                           ! (Angstroms and Degrees)  !
 --------------------------                            --------------------------
 ! Name  Definition              Value          Derivative Info.                !
 --------------------------------------------------------------------------------
 ! R1    R(1,2)                  1.31           estimate D2E/DX2                !
 ! R2    R(1,10)                 1.08           estimate D2E/DX2                !
 ! R3    R(1,11)                 1.0799         estimate D2E/DX2                !
 ! R4    R(2,3)                  1.507          estimate D2E/DX2                !
 ! R5    R(2,12)                 1.08           estimate D2E/DX2                !
 ! R6    R(3,4)                  1.0901         estimate D2E/DX2                !
 ! R7    R(3,5)                  1.5408         estimate D2E/DX2                !
 ! R8    R(3,9)                  1.4574         estimate D2E/DX2                !
 ! R9    R(5,6)                  1.4574         estimate D2E/DX2                !
 ! R10   R(5,13)                 1.0901         estimate D2E/DX2                !
 ! R11   R(5,14)                 1.0899         estimate D2E/DX2                !
 ! R12   R(6,7)                  1.3372         estimate D2E/DX2                !
 ! R13   R(7,8)                  1.2143         estimate D2E/DX2                !
 ! R14   R(7,9)                  1.3402         estimate D2E/DX2                !
 ! A1    A(2,1,10)             119.9961         estimate D2E/DX2                !
 ! A2    A(2,1,11)             120.0029         estimate D2E/DX2                !
 ! A3    A(10,1,11)            120.0004         estimate D2E/DX2                !
 ! A4    A(1,2,3)              119.999          estimate D2E/DX2                !
 ! A5    A(1,2,12)             120.0033         estimate D2E/DX2                !
 ! A6    A(3,2,12)             119.9977         estimate D2E/DX2                !
 ! A7    A(2,3,4)              110.4876         estimate D2E/DX2                !
 ! A8    A(2,3,5)              110.5416         estimate D2E/DX2                !
 ! A9    A(2,3,9)              110.5461         estimate D2E/DX2                !
 ! A10   A(4,3,5)              110.5409         estimate D2E/DX2                !
 ! A11   A(4,3,9)              110.5389         estimate D2E/DX2                !
 ! A12   A(5,3,9)              104.0224         estimate D2E/DX2                !
 ! A13   A(3,5,6)              103.8976         estimate D2E/DX2                !
 ! A14   A(3,5,13)             110.5423         estimate D2E/DX2                !
 ! A15   A(3,5,14)             110.5443         estimate D2E/DX2                !
 ! A16   A(6,5,13)             110.536          estimate D2E/DX2                !
 ! A17   A(6,5,14)             110.5462         estimate D2E/DX2                !
 ! A18   A(13,5,14)            110.597          estimate D2E/DX2                !
 ! A19   A(5,6,7)              109.1792         estimate D2E/DX2                !
 ! A20   A(6,7,8)              123.077          estimate D2E/DX2                !
 ! A21   A(6,7,9)              113.8887         estimate D2E/DX2                !
 ! A22   A(8,7,9)              123.0342         estimate D2E/DX2                !
 ! A23   A(3,9,7)              109.0119         estimate D2E/DX2                !
 ! D1    D(10,1,2,3)           179.9986         estimate D2E/DX2                !
 ! D2    D(10,1,2,12)           -0.0002         estimate D2E/DX2                !
 ! D3    D(11,1,2,3)            -0.2775         estimate D2E/DX2                !
 ! D4    D(11,1,2,12)          179.7237         estimate D2E/DX2                !
 ! D5    D(1,2,3,4)             -0.7015         estimate D2E/DX2                !
 ! D6    D(1,2,3,5)            121.9826         estimate D2E/DX2                !
 ! D7    D(1,2,3,9)           -123.3863         estimate D2E/DX2                !
 ! D8    D(12,2,3,4)           179.2973         estimate D2E/DX2                !
 ! D9    D(12,2,3,5)           -58.0185         estimate D2E/DX2                !
 ! D10   D(12,2,3,9)            56.6125         estimate D2E/DX2                !
 ! D11   D(2,3,5,6)            118.6082         estimate D2E/DX2                !
 ! D12   D(2,3,5,13)          -122.7957         estimate D2E/DX2                !
 ! D13   D(2,3,5,14)            -0.0009         estimate D2E/DX2                !
 ! D14   D(4,3,5,6)           -118.7388         estimate D2E/DX2                !
 ! D15   D(4,3,5,13)            -0.1427         estimate D2E/DX2                !
 ! D16   D(4,3,5,14)           122.6521         estimate D2E/DX2                !
 ! D17   D(9,3,5,6)             -0.0697         estimate D2E/DX2                !
 ! D18   D(9,3,5,13)           118.5264         estimate D2E/DX2                !
 ! D19   D(9,3,5,14)          -118.6788         estimate D2E/DX2                !
 ! D20   D(2,3,9,7)           -118.5507         estimate D2E/DX2                !
 ! D21   D(4,3,9,7)            118.7945         estimate D2E/DX2                !
 ! D22   D(5,3,9,7)              0.1241         estimate D2E/DX2                !
 ! D23   D(3,5,6,7)             -0.0061         estimate D2E/DX2                !
 ! D24   D(13,5,6,7)          -118.6065         estimate D2E/DX2                !
 ! D25   D(14,5,6,7)           118.6017         estimate D2E/DX2                !
 ! D26   D(5,6,7,8)           -179.9616         estimate D2E/DX2                !
 ! D27   D(5,6,7,9)              0.0913         estimate D2E/DX2                !
 ! D28   D(6,7,9,3)             -0.1403         estimate D2E/DX2                !
 ! D29   D(8,7,9,3)            179.9126         estimate D2E/DX2                !
 --------------------------------------------------------------------------------
 Trust Radius=3.00D-01 FncErr=1.00D-07 GrdErr=1.00D-06
 Number of steps in this run=     76 maximum allowed number of steps=    100.
 GradGradGradGradGradGradGradGradGradGradGradGradGradGradGradGradGradGrad

 Leave Link  103 at Mon May 16 16:20:50 2022, MaxMem=  2147483648 cpu:         0.2
 (Enter /gpfs/runtime/opt/gaussian/g09-D01/g09/l202.exe)
                          Input orientation:                          
 ---------------------------------------------------------------------
 Center     Atomic      Atomic             Coordinates (Angstroms)
 Number     Number       Type             X           Y           Z
 ---------------------------------------------------------------------
      1          6           0        3.111600    0.403400    0.061500
      2          6           0        1.890400    0.222800    0.499900
      3          6           0        0.780500   -0.091400   -0.469800
      4          1           0        1.162100   -0.119100   -1.490500
      5          6           0        0.108600   -1.429800   -0.107300
      6          8           0       -1.272600   -1.062200    0.177800
      7          6           0       -1.417700    0.257600    0.018900
      8          8           0       -2.472000    0.834200    0.193600
      9          8           0       -0.293800    0.886400   -0.351900
     10          1           0        3.907000    0.628600    0.756500
     11          1           0        3.323800    0.322700   -0.994300
     12          1           0        1.679000    0.299100    1.556300
     13          1           0        0.154400   -2.121100   -0.948900
     14          1           0        0.577800   -1.867000    0.774000
 ---------------------------------------------------------------------
                    Distance matrix (angstroms):
                    1          2          3          4          5
     1  C    0.000000
     2  C    1.310015   0.000000
     3  C    2.441543   1.506956   0.000000
     4  H    2.546028   2.146860   1.090052   0.000000
     5  C    3.522375   2.504913   1.540834   2.177393   0.000000
     6  O    4.624145   3.429219   2.361580   3.098456   1.457438
     7  C    4.531846   3.343067   2.278752   3.012567   2.278780
     8  O    5.601752   4.415672   3.446098   4.117239   3.446119
     9  O    3.464237   2.436526   1.457434   2.104064   2.363586
    10  H    1.080001   2.072967   3.434707   3.625264   4.405792
    11  H    1.079933   2.072981   2.629630   2.261493   3.767696
    12  H    2.073077   1.080043   2.250527   3.118504   2.867545
    13  H    4.017342   3.256775   2.177434   2.305817   1.090084
    14  H    3.475991   2.483005   2.177356   2.919678   1.089946
                    6          7          8          9         10
     6  O    0.000000
     7  C    1.337227   0.000000
     8  O    2.243912   1.214305   0.000000
     9  O    2.244031   1.340162   2.246074   0.000000
    10  H    5.479229   5.388332   6.407087   4.352210   0.000000
    11  H    4.941524   4.848983   5.938353   3.717185   1.870561
    12  H    3.530629   3.457582   4.401600   2.806793   2.390028
    13  H    2.104056   3.011038   4.115469   3.098766   4.954921
    14  H    2.104076   3.011000   4.115170   3.099766   4.160757
                   11         12         13         14
    11  H    0.000000
    12  H    3.035043   0.000000
    13  H    4.002414   3.802341   0.000000
    14  H    3.932199   2.552768   1.792266   0.000000
 Stoichiometry    C5H6O3
 Framework group  C1[X(C5H6O3)]
 Deg. of freedom    36
 Full point group                 C1      NOp   1
 Largest Abelian subgroup         C1      NOp   1
 Largest concise Abelian subgroup C1      NOp   1
                         Standard orientation:                         
 ---------------------------------------------------------------------
 Center     Atomic      Atomic             Coordinates (Angstroms)
 Number     Number       Type             X           Y           Z
 ---------------------------------------------------------------------
      1          6           0        3.026654   -0.399801   -0.048450
      2          6           0        1.804892   -0.240093   -0.493344
      3          6           0        0.689738    0.084286    0.466930
      4          1           0        1.068570    0.137358    1.487658
      5          6           0        0.006236    1.408265    0.074406
      6          8           0       -1.370765    1.021690   -0.205867
      7          6           0       -1.503902   -0.295722   -0.019124
      8          8           0       -2.552333   -0.885809   -0.183823
      9          8           0       -0.375078   -0.905867    0.367547
     10          1           0        3.825820   -0.632298   -0.736694
     11          1           0        3.235513   -0.294588    1.005857
     12          1           0        1.596795   -0.340914   -1.548343
     13          1           0        0.043514    2.117775    0.901140
     14          1           0        0.473476    1.830943   -0.814983
 ---------------------------------------------------------------------
 Rotational constants (GHZ):      5.3163240      1.3905797      1.1887875
 Leave Link  202 at Mon May 16 16:20:50 2022, MaxMem=  2147483648 cpu:         0.4
 (Enter /gpfs/runtime/opt/gaussian/g09-D01/g09/l301.exe)
 Standard basis: 6-31+G(d,p) (6D, 7F)
 Ernie: Thresh=  0.10000D-02 Tol=  0.10000D-05 Strict=F.
 There are   182 symmetry adapted cartesian basis functions of A   symmetry.
 There are   182 symmetry adapted basis functions of A   symmetry.
   182 basis functions,   298 primitive gaussians,   182 cartesian basis functions
    30 alpha electrons       30 beta electrons
       nuclear repulsion energy       372.6940479236 Hartrees.
 IExCor= 4336 DFT=T Ex+Corr=M062X ExCW=0 ScaHFX=  0.540000
 ScaDFX=  1.000000  1.000000  1.000000  1.000000 ScalE2=  1.000000  1.000000
 IRadAn=      0 IRanWt=     -1 IRanGd=            0 ICorTp=0 IEmpDi=131
 NAtoms=   14 NActive=   14 NUniq=   14 SFac= 1.00D+00 NAtFMM=   60 NAOKFM=F Big=F
 Integral buffers will be    131072 words long.
 Raffenetti 2 integral format.
 Two-electron integral symmetry is turned on.
 R6Disp:  Grimme-D3 Dispersion energy=       -0.0002868473 Hartrees.
 Nuclear repulsion after empirical dispersion term =      372.6937610763 Hartrees.
 ------------------------------------------------------------------------------
 Polarizable Continuum Model (PCM)
 =================================
 Model                : PCM (using non-symmetric T matrix).
 Atomic radii         : SMD-Coulomb.
 Polarization charges : Total charges.
 Charge compensation  : None.
 Solution method      : On-the-fly selection.
 Cavity type          : VdW (van der Waals Surface) (Alpha=1.000).
 Cavity algorithm     : GePol (No added spheres)
                        Default sphere list used, NSphG=   14.
                        Lebedev-Laikov grids with approx.  5.0 points / Ang**2.
                        Smoothing algorithm: Karplus/York (Gamma=1.0000).
                        Polarization charges: spherical gaussians, with
                                              point-specific exponents (IZeta= 3).
                        Self-potential: point-specific (ISelfS= 7).
                        Self-field    : sphere-specific E.n sum rule (ISelfD= 2).
 1st derivatives      : Analytical E(r).r(x)/FMM algorithm (CHGder, D1EAlg=3).
                        Cavity 1st derivative terms included.
 Solvent              : DiMethylSulfoxide, Eps=  46.826000 Eps(inf)=   2.007889
 ------------------------------------------------------------------------------
 Spheres list:
 ISph  on   Nord     Re0    Alpha      Xe            Ye            Ze
    1   C      1    1.8500  1.000      3.026654     -0.399801     -0.048450
    2   C      2    1.8500  1.000      1.804892     -0.240093     -0.493344
    3   C      3    1.8500  1.000      0.689738      0.084286      0.466930
    4   H      4    1.2000  1.000      1.068570      0.137358      1.487658
    5   C      5    1.8500  1.000      0.006236      1.408265      0.074406
    6   O      6    2.2940  1.000     -1.370765      1.021690     -0.205867
    7   C      7    1.8500  1.000     -1.503902     -0.295722     -0.019124
    8   O      8    2.2940  1.000     -2.552333     -0.885809     -0.183823
    9   O      9    2.2940  1.000     -0.375078     -0.905867      0.367547
   10   H     10    1.2000  1.000      3.825820     -0.632298     -0.736694
   11   H     11    1.2000  1.000      3.235513     -0.294588      1.005857
   12   H     12    1.2000  1.000      1.596795     -0.340914     -1.548343
   13   H     13    1.2000  1.000      0.043514      2.117775      0.901140
   14   H     14    1.2000  1.000      0.473476      1.830943     -0.814983
 ------------------------------------------------------------------------------
 GePol: Number of generator spheres                  =      14
 GePol: Total number of spheres                      =      14
 GePol: Number of exposed spheres                    =      14 (100.00%)
 GePol: Number of points                             =    1335
 GePol: Average weight of points                     =       0.12
 GePol: Minimum weight of points                     =   0.30D-11
 GePol: Maximum weight of points                     =    0.17992
 GePol: Number of points with low weight             =      61
 GePol: Fraction of low-weight points (<1% of avg)   =       4.57%
 GePol: Cavity surface area                          =    166.737 Ang**2
 GePol: Cavity volume                                =    157.438 Ang**3
 ------------------------------------------------------------------------------
 Atomic radii for non-electrostatic terms: SMD-CDS.
 ------------------------------------------------------------------------------
 PCM non-electrostatic energy =        -0.0008784624 Hartrees.
 Nuclear repulsion after PCM non-electrostatic terms =      372.6928826139 Hartrees.
 Leave Link  301 at Mon May 16 16:20:50 2022, MaxMem=  2147483648 cpu:         1.0
 (Enter /gpfs/runtime/opt/gaussian/g09-D01/g09/l302.exe)
 NPDir=0 NMtPBC=     1 NCelOv=     1 NCel=       1 NClECP=     1 NCelD=      1
         NCelK=      1 NCelE2=     1 NClLst=     1 CellRange=     0.0.
 One-electron integrals computed using PRISM.
 NBasis=   182 RedAO= T EigKep=  3.16D-05  NBF=   182
 NBsUse=   182 1.00D-06 EigRej= -1.00D+00 NBFU=   182
 Precomputing XC quadrature grid using
 IXCGrd= 4 IRadAn=           0 IRanWt=          -1 IRanGd=           0 AccXCQ= 0.00D+00.
 Generated NRdTot=       0 NPtTot=           0 NUsed=           0 NTot=          32
 NSgBfM=   182   182   182   182   182 MxSgAt=    14 MxSgA2=    14.
 Leave Link  302 at Mon May 16 16:20:51 2022, MaxMem=  2147483648 cpu:         3.6
 (Enter /gpfs/runtime/opt/gaussian/g09-D01/g09/l303.exe)
 DipDrv:  MaxL=1.
 Leave Link  303 at Mon May 16 16:20:51 2022, MaxMem=  2147483648 cpu:         0.2
 (Enter /gpfs/runtime/opt/gaussian/g09-D01/g09/l401.exe)
 ExpMin= 4.38D-02 ExpMax= 5.48D+03 ExpMxC= 8.25D+02 IAcc=2 IRadAn=         4 AccDes= 0.00D+00
 Harris functional with IExCor= 1009 and IRadAn=       4 diagonalized for initial guess.
 HarFok:  IExCor= 1009 AccDes= 0.00D+00 IRadAn=         4 IDoV= 1 UseB2=F ITyADJ=14
 ICtDFT=  3500011 ScaDFX=  1.000000  1.000000  1.000000  1.000000
 FoFCou: FMM=F IPFlag=           0 FMFlag=      100000 FMFlg1=           0
         NFxFlg=           0 DoJE=T BraDBF=F KetDBF=T FulRan=T
         wScrn=  0.000000 ICntrl=     500 IOpCl=  0 I1Cent=   200000004 NGrid=           0
         NMat0=    1 NMatS0=      1 NMatT0=    0 NMatD0=    1 NMtDS0=    0 NMtDT0=    0
 Petite list used in FoFCou.
 Harris En= -419.446332564311    
 JPrj=0 DoOrth=F DoCkMO=F.
 Leave Link  401 at Mon May 16 16:20:51 2022, MaxMem=  2147483648 cpu:         2.5
 (Enter /gpfs/runtime/opt/gaussian/g09-D01/g09/l502.exe)
 Closed shell SCF:
 Using DIIS extrapolation, IDIIS=  1040.
 Integral symmetry usage will be decided dynamically.
 Keep R1 ints in memory in canonical form, NReq=143814252.
 IVT=      120738 IEndB=      120738 NGot=  2147483648 MDV=  2008693380
 LenX=  2008693380 LenY=  2008659815
 Requested convergence on RMS density matrix=1.00D-08 within 128 cycles.
 Requested convergence on MAX density matrix=1.00D-06.
 Requested convergence on             energy=1.00D-06.
 No special actions if energy rises.
 FoFCou: FMM=F IPFlag=           0 FMFlag=           0 FMFlg1=           0
         NFxFlg=           0 DoJE=F BraDBF=F KetDBF=F FulRan=T
         wScrn=  0.000000 ICntrl=     600 IOpCl=  0 I1Cent=           0 NGrid=           0
         NMat0=    1 NMatS0=  16653 NMatT0=    0 NMatD0=    1 NMtDS0=    0 NMtDT0=    0
 Symmetry not used in FoFCou.

 Cycle   1  Pass 1  IDiag  1:
 Inv3:  Mode=1 IEnd=     5346675.
 Iteration    1 A*A^-1 deviation from unit magnitude is 5.55D-15 for    958.
 Iteration    1 A*A^-1 deviation from orthogonality  is 4.22D-15 for    521    160.
 Iteration    1 A^-1*A deviation from unit magnitude is 5.11D-15 for    958.
 Iteration    1 A^-1*A deviation from orthogonality  is 1.50D-12 for    381    302.
 E= -419.476971682398    
 DIIS: error= 2.03D-02 at cycle   1 NSaved=   1.
 NSaved= 1 IEnMin= 1 EnMin= -419.476971682398     IErMin= 1 ErrMin= 2.03D-02
 ErrMax= 2.03D-02  0.00D+00 EMaxC= 1.00D-01 BMatC= 2.36D-01 BMatP= 2.36D-01
 IDIUse=3 WtCom= 7.97D-01 WtEn= 2.03D-01
 Coeff-Com:  0.100D+01
 Coeff-En:   0.100D+01
 Coeff:      0.100D+01
 Gap=     0.511 Goal=   None    Shift=    0.000
 GapD=    0.511 DampG=2.000 DampE=0.500 DampFc=1.0000 IDamp=-1.
 RMSDP=7.04D-03 MaxDP=2.56D-01              OVMax= 2.04D-01

 Cycle   2  Pass 1  IDiag  1:
 E= -419.459902221844     Delta-E=        0.017069460555 Rises=F Damp=F
 DIIS: error= 3.05D-02 at cycle   2 NSaved=   2.
 NSaved= 2 IEnMin= 1 EnMin= -419.476971682398     IErMin= 1 ErrMin= 2.03D-02
 ErrMax= 3.05D-02  0.00D+00 EMaxC= 1.00D-01 BMatC= 2.58D-01 BMatP= 2.36D-01
 IDIUse=3 WtCom= 6.95D-01 WtEn= 3.05D-01
 Coeff-Com:  0.512D+00 0.488D+00
 Coeff-En:   0.524D+00 0.476D+00
 Coeff:      0.516D+00 0.484D+00
 Gap=     0.340 Goal=   None    Shift=    0.000
 RMSDP=3.89D-03 MaxDP=2.33D-01 DE= 1.71D-02 OVMax= 1.16D-01

 Cycle   3  Pass 1  IDiag  1:
 E= -419.648048069044     Delta-E=       -0.188145847200 Rises=F Damp=F
 DIIS: error= 6.50D-03 at cycle   3 NSaved=   3.
 NSaved= 3 IEnMin= 3 EnMin= -419.648048069044     IErMin= 3 ErrMin= 6.50D-03
 ErrMax= 6.50D-03  0.00D+00 EMaxC= 1.00D-01 BMatC= 1.28D-02 BMatP= 2.36D-01
 IDIUse=3 WtCom= 9.35D-01 WtEn= 6.50D-02
 Coeff-Com:  0.134D+00 0.211D+00 0.656D+00
 Coeff-En:   0.000D+00 0.000D+00 0.100D+01
 Coeff:      0.125D+00 0.197D+00 0.678D+00
 Gap=     0.361 Goal=   None    Shift=    0.000
 RMSDP=8.07D-04 MaxDP=2.90D-02 DE=-1.88D-01 OVMax= 4.24D-02

 Cycle   4  Pass 1  IDiag  1:
 E= -419.656405765134     Delta-E=       -0.008357696090 Rises=F Damp=F
 DIIS: error= 2.13D-03 at cycle   4 NSaved=   4.
 NSaved= 4 IEnMin= 4 EnMin= -419.656405765134     IErMin= 4 ErrMin= 2.13D-03
 ErrMax= 2.13D-03  0.00D+00 EMaxC= 1.00D-01 BMatC= 1.86D-03 BMatP= 1.28D-02
 IDIUse=3 WtCom= 9.79D-01 WtEn= 2.13D-02
 Coeff-Com:  0.386D-02 0.335D-01 0.317D+00 0.646D+00
 Coeff-En:   0.000D+00 0.000D+00 0.830D-01 0.917D+00
 Coeff:      0.378D-02 0.328D-01 0.312D+00 0.652D+00
 Gap=     0.353 Goal=   None    Shift=    0.000
 RMSDP=2.64D-04 MaxDP=5.61D-03 DE=-8.36D-03 OVMax= 9.68D-03

 Cycle   5  Pass 1  IDiag  1:
 E= -419.657801301663     Delta-E=       -0.001395536529 Rises=F Damp=F
 DIIS: error= 3.17D-04 at cycle   5 NSaved=   5.
 NSaved= 5 IEnMin= 5 EnMin= -419.657801301663     IErMin= 5 ErrMin= 3.17D-04
 ErrMax= 3.17D-04  0.00D+00 EMaxC= 1.00D-01 BMatC= 6.72D-05 BMatP= 1.86D-03
 IDIUse=3 WtCom= 9.97D-01 WtEn= 3.17D-03
 Coeff-Com: -0.263D-02 0.654D-02 0.112D+00 0.285D+00 0.599D+00
 Coeff-En:   0.000D+00 0.000D+00 0.000D+00 0.000D+00 0.100D+01
 Coeff:     -0.262D-02 0.652D-02 0.112D+00 0.284D+00 0.600D+00
 Gap=     0.351 Goal=   None    Shift=    0.000
 RMSDP=5.43D-05 MaxDP=2.11D-03 DE=-1.40D-03 OVMax= 1.72D-03

 Cycle   6  Pass 1  IDiag  1:
 E= -419.657851726596     Delta-E=       -0.000050424933 Rises=F Damp=F
 DIIS: error= 8.44D-05 at cycle   6 NSaved=   6.
 NSaved= 6 IEnMin= 6 EnMin= -419.657851726596     IErMin= 6 ErrMin= 8.44D-05
 ErrMax= 8.44D-05  0.00D+00 EMaxC= 1.00D-01 BMatC= 3.74D-06 BMatP= 6.72D-05
 IDIUse=1 WtCom= 1.00D+00 WtEn= 0.00D+00
 Coeff-Com: -0.122D-02-0.770D-03 0.127D-01 0.393D-01 0.212D+00 0.738D+00
 Coeff:     -0.122D-02-0.770D-03 0.127D-01 0.393D-01 0.212D+00 0.738D+00
 Gap=     0.352 Goal=   None    Shift=    0.000
 RMSDP=1.81D-05 MaxDP=4.09D-04 DE=-5.04D-05 OVMax= 4.14D-04

 Cycle   7  Pass 1  IDiag  1:
 E= -419.657855041885     Delta-E=       -0.000003315289 Rises=F Damp=F
 DIIS: error= 2.74D-05 at cycle   7 NSaved=   7.
 NSaved= 7 IEnMin= 7 EnMin= -419.657855041885     IErMin= 7 ErrMin= 2.74D-05
 ErrMax= 2.74D-05  0.00D+00 EMaxC= 1.00D-01 BMatC= 2.35D-07 BMatP= 3.74D-06
 IDIUse=1 WtCom= 1.00D+00 WtEn= 0.00D+00
 Coeff-Com: -0.112D-04-0.932D-03-0.674D-02-0.190D-01-0.248D-02 0.136D+00
 Coeff-Com:  0.893D+00
 Coeff:     -0.112D-04-0.932D-03-0.674D-02-0.190D-01-0.248D-02 0.136D+00
 Coeff:      0.893D+00
 Gap=     0.352 Goal=   None    Shift=    0.000
 RMSDP=6.65D-06 MaxDP=1.49D-04 DE=-3.32D-06 OVMax= 2.26D-04

 Cycle   8  Pass 1  IDiag  1:
 E= -419.657855361764     Delta-E=       -0.000000319879 Rises=F Damp=F
 DIIS: error= 8.44D-06 at cycle   8 NSaved=   8.
 NSaved= 8 IEnMin= 8 EnMin= -419.657855361764     IErMin= 8 ErrMin= 8.44D-06
 ErrMax= 8.44D-06  0.00D+00 EMaxC= 1.00D-01 BMatC= 3.12D-08 BMatP= 2.35D-07
 IDIUse=1 WtCom= 1.00D+00 WtEn= 0.00D+00
 Coeff-Com:  0.125D-03-0.226D-03-0.273D-02-0.936D-02-0.194D-01-0.382D-01
 Coeff-Com:  0.238D+00 0.831D+00
 Coeff:      0.125D-03-0.226D-03-0.273D-02-0.936D-02-0.194D-01-0.382D-01
 Coeff:      0.238D+00 0.831D+00
 Gap=     0.352 Goal=   None    Shift=    0.000
 RMSDP=2.12D-06 MaxDP=4.27D-05 DE=-3.20D-07 OVMax= 8.54D-05

 Cycle   9  Pass 1  IDiag  1:
 E= -419.657855401551     Delta-E=       -0.000000039788 Rises=F Damp=F
 DIIS: error= 1.83D-06 at cycle   9 NSaved=   9.
 NSaved= 9 IEnMin= 9 EnMin= -419.657855401551     IErMin= 9 ErrMin= 1.83D-06
 ErrMax= 1.83D-06  0.00D+00 EMaxC= 1.00D-01 BMatC= 1.84D-09 BMatP= 3.12D-08
 IDIUse=1 WtCom= 1.00D+00 WtEn= 0.00D+00
 Coeff-Com:  0.195D-04 0.300D-04 0.291D-03 0.286D-03-0.217D-02-0.176D-01
 Coeff-Com: -0.462D-01 0.117D+00 0.948D+00
 Coeff:      0.195D-04 0.300D-04 0.291D-03 0.286D-03-0.217D-02-0.176D-01
 Coeff:     -0.462D-01 0.117D+00 0.948D+00
 Gap=     0.352 Goal=   None    Shift=    0.000
 RMSDP=7.04D-07 MaxDP=1.48D-05 DE=-3.98D-08 OVMax= 2.59D-05

 Cycle  10  Pass 1  IDiag  1:
 E= -419.657855404078     Delta-E=       -0.000000002527 Rises=F Damp=F
 DIIS: error= 8.53D-07 at cycle  10 NSaved=  10.
 NSaved=10 IEnMin=10 EnMin= -419.657855404078     IErMin=10 ErrMin= 8.53D-07
 ErrMax= 8.53D-07  0.00D+00 EMaxC= 1.00D-01 BMatC= 3.81D-10 BMatP= 1.84D-09
 IDIUse=1 WtCom= 1.00D+00 WtEn= 0.00D+00
 Coeff-Com: -0.277D-06 0.280D-04 0.347D-03 0.802D-03 0.486D-03-0.489D-02
 Coeff-Com: -0.355D-01-0.601D-02 0.428D+00 0.617D+00
 Coeff:     -0.277D-06 0.280D-04 0.347D-03 0.802D-03 0.486D-03-0.489D-02
 Coeff:     -0.355D-01-0.601D-02 0.428D+00 0.617D+00
 Gap=     0.352 Goal=   None    Shift=    0.000
 RMSDP=1.78D-07 MaxDP=5.15D-06 DE=-2.53D-09 OVMax= 1.01D-05

 Cycle  11  Pass 1  IDiag  1:
 E= -419.657855404461     Delta-E=       -0.000000000382 Rises=F Damp=F
 DIIS: error= 1.99D-07 at cycle  11 NSaved=  11.
 NSaved=11 IEnMin=11 EnMin= -419.657855404461     IErMin=11 ErrMin= 1.99D-07
 ErrMax= 1.99D-07  0.00D+00 EMaxC= 1.00D-01 BMatC= 2.21D-11 BMatP= 3.81D-10
 IDIUse=1 WtCom= 1.00D+00 WtEn= 0.00D+00
 Coeff-Com: -0.208D-05 0.435D-05 0.713D-04 0.197D-03 0.385D-03 0.679D-03
 Coeff-Com: -0.514D-02-0.192D-01 0.443D-02 0.178D+00 0.840D+00
 Coeff:     -0.208D-05 0.435D-05 0.713D-04 0.197D-03 0.385D-03 0.679D-03
 Coeff:     -0.514D-02-0.192D-01 0.443D-02 0.178D+00 0.840D+00
 Gap=     0.352 Goal=   None    Shift=    0.000
 RMSDP=6.42D-08 MaxDP=2.36D-06 DE=-3.82D-10 OVMax= 2.26D-06

 Cycle  12  Pass 1  IDiag  1:
 E= -419.657855404494     Delta-E=       -0.000000000033 Rises=F Damp=F
 DIIS: error= 4.21D-08 at cycle  12 NSaved=  12.
 NSaved=12 IEnMin=12 EnMin= -419.657855404494     IErMin=12 ErrMin= 4.21D-08
 ErrMax= 4.21D-08  0.00D+00 EMaxC= 1.00D-01 BMatC= 1.31D-12 BMatP= 2.21D-11
 IDIUse=1 WtCom= 1.00D+00 WtEn= 0.00D+00
 Coeff-Com: -0.454D-06-0.355D-06 0.389D-05 0.123D-04 0.790D-04 0.424D-03
 Coeff-Com:  0.480D-03-0.451D-02-0.214D-01 0.883D-02 0.218D+00 0.798D+00
 Coeff:     -0.454D-06-0.355D-06 0.389D-05 0.123D-04 0.790D-04 0.424D-03
 Coeff:      0.480D-03-0.451D-02-0.214D-01 0.883D-02 0.218D+00 0.798D+00
 Gap=     0.352 Goal=   None    Shift=    0.000
 RMSDP=1.68D-08 MaxDP=4.69D-07 DE=-3.33D-11 OVMax= 2.98D-07

 Cycle  13  Pass 1  IDiag  1:
 E= -419.657855404495     Delta-E=       -0.000000000001 Rises=F Damp=F
 DIIS: error= 2.83D-08 at cycle  13 NSaved=  13.
 NSaved=13 IEnMin=13 EnMin= -419.657855404495     IErMin=13 ErrMin= 2.83D-08
 ErrMax= 2.83D-08  0.00D+00 EMaxC= 1.00D-01 BMatC= 3.42D-13 BMatP= 1.31D-12
 IDIUse=1 WtCom= 1.00D+00 WtEn= 0.00D+00
 Coeff-Com:  0.371D-07-0.712D-06-0.611D-05-0.177D-04-0.976D-05 0.105D-03
 Coeff-Com:  0.836D-03 0.410D-03-0.107D-01-0.204D-01-0.218D-02 0.379D+00
 Coeff-Com:  0.653D+00
 Coeff:      0.371D-07-0.712D-06-0.611D-05-0.177D-04-0.976D-05 0.105D-03
 Coeff:      0.836D-03 0.410D-03-0.107D-01-0.204D-01-0.218D-02 0.379D+00
 Coeff:      0.653D+00
 Gap=     0.352 Goal=   None    Shift=    0.000
 RMSDP=5.06D-09 MaxDP=1.32D-07 DE=-1.25D-12 OVMax= 1.54D-07

 Error on total polarization charges =  0.02255
 SCF Done:  E(RM062X) =  -419.657855404     A.U. after   13 cycles
            NFock= 13  Conv=0.51D-08     -V/T= 2.0083
 KE= 4.161912674396D+02 PE=-1.725522599120D+03 EE= 5.169805936616D+02
 SMD-CDS (non-electrostatic) energy       (kcal/mol) =      -0.55
 (included in total energy above)
 Leave Link  502 at Mon May 16 16:21:03 2022, MaxMem=  2147483648 cpu:        78.0
 (Enter /gpfs/runtime/opt/gaussian/g09-D01/g09/l601.exe)
 Copying SCF densities to generalized density rwf, IOpCl= 0 IROHF=0.

 **********************************************************************

            Population analysis using the SCF density.

 **********************************************************************

 Orbital symmetries:
       Occupied  (A) (A) (A) (A) (A) (A) (A) (A) (A) (A) (A) (A)
                 (A) (A) (A) (A) (A) (A) (A) (A) (A) (A) (A) (A)
                 (A) (A) (A) (A) (A) (A)
       Virtual   (A) (A) (A) (A) (A) (A) (A) (A) (A) (A) (A) (A)
                 (A) (A) (A) (A) (A) (A) (A) (A) (A) (A) (A) (A)
                 (A) (A) (A) (A) (A) (A) (A) (A) (A) (A) (A) (A)
                 (A) (A) (A) (A) (A) (A) (A) (A) (A) (A) (A) (A)
                 (A) (A) (A) (A) (A) (A) (A) (A) (A) (A) (A) (A)
                 (A) (A) (A) (A) (A) (A) (A) (A) (A) (A) (A) (A)
                 (A) (A) (A) (A) (A) (A) (A) (A) (A) (A) (A) (A)
                 (A) (A) (A) (A) (A) (A) (A) (A) (A) (A) (A) (A)
                 (A) (A) (A) (A) (A) (A) (A) (A) (A) (A) (A) (A)
                 (A) (A) (A) (A) (A) (A) (A) (A) (A) (A) (A) (A)
                 (A) (A) (A) (A) (A) (A) (A) (A) (A) (A) (A) (A)
                 (A) (A) (A) (A) (A) (A) (A) (A) (A) (A) (A) (A)
                 (A) (A) (A) (A) (A) (A) (A) (A)
 The electronic state is 1-A.
 Alpha  occ. eigenvalues --  -19.71106 -19.71075 -19.63936 -10.73921 -10.62697
 Alpha  occ. eigenvalues --  -10.61706 -10.55660 -10.54719  -1.29454  -1.17888
 Alpha  occ. eigenvalues --   -1.15633  -0.92069  -0.84555  -0.76257  -0.70259
 Alpha  occ. eigenvalues --   -0.66486  -0.61219  -0.59586  -0.58691  -0.52746
 Alpha  occ. eigenvalues --   -0.51746  -0.51092  -0.49874  -0.46579  -0.44431
 Alpha  occ. eigenvalues --   -0.43048  -0.38214  -0.37964  -0.37687  -0.33757
 Alpha virt. eigenvalues --    0.01415   0.02768   0.03403   0.04014   0.04157
 Alpha virt. eigenvalues --    0.05809   0.06596   0.06903   0.07293   0.07742
 Alpha virt. eigenvalues --    0.08315   0.09302   0.10586   0.11234   0.11938
 Alpha virt. eigenvalues --    0.13100   0.14560   0.15626   0.15934   0.16992
 Alpha virt. eigenvalues --    0.19134   0.19989   0.21748   0.23438   0.24401
 Alpha virt. eigenvalues --    0.24648   0.25340   0.25590   0.27986   0.28648
 Alpha virt. eigenvalues --    0.29513   0.29814   0.30671   0.30773   0.31432
 Alpha virt. eigenvalues --    0.31663   0.33682   0.34653   0.36259   0.38088
 Alpha virt. eigenvalues --    0.39684   0.40962   0.42706   0.42931   0.44882
 Alpha virt. eigenvalues --    0.46407   0.48266   0.55860   0.64787   0.68109
 Alpha virt. eigenvalues --    0.69110   0.72156   0.74876   0.77114   0.79388
 Alpha virt. eigenvalues --    0.80026   0.84934   0.87229   0.89473   0.90433
 Alpha virt. eigenvalues --    0.93086   0.97871   0.98882   1.01136   1.02120
 Alpha virt. eigenvalues --    1.05098   1.08335   1.10460   1.14944   1.17716
 Alpha virt. eigenvalues --    1.20499   1.23337   1.25649   1.29405   1.31533
 Alpha virt. eigenvalues --    1.34020   1.34900   1.36015   1.37865   1.39126
 Alpha virt. eigenvalues --    1.42400   1.44271   1.44592   1.48153   1.49962
 Alpha virt. eigenvalues --    1.52516   1.53730   1.61278   1.65054   1.69038
 Alpha virt. eigenvalues --    1.72569   1.75015   1.79849   1.85259   1.86814
 Alpha virt. eigenvalues --    1.88613   1.88889   1.90787   1.91907   1.95982
 Alpha virt. eigenvalues --    1.96695   1.99097   1.99653   2.03382   2.07516
 Alpha virt. eigenvalues --    2.09500   2.13869   2.15961   2.17972   2.20080
 Alpha virt. eigenvalues --    2.25498   2.30531   2.33253   2.41004   2.44418
 Alpha virt. eigenvalues --    2.46527   2.51807   2.52471   2.55265   2.56563
 Alpha virt. eigenvalues --    2.61585   2.62537   2.65149   2.66764   2.70188
 Alpha virt. eigenvalues --    2.72077   2.75534   2.81480   2.83885   2.88107
 Alpha virt. eigenvalues --    2.88717   2.90973   2.93877   2.96691   3.05329
 Alpha virt. eigenvalues --    3.11829   3.24518   3.26094   3.30863   3.33240
 Alpha virt. eigenvalues --    3.40873   3.46393   3.50801   3.69126   4.17590
 Alpha virt. eigenvalues --    4.35094   4.43085   4.48406   4.60164   4.65257
 Alpha virt. eigenvalues --    4.66169   4.78528
          Condensed to atoms (all electrons):
               1          2          3          4          5          6
     1  C    5.401750  -0.005164   0.130228   0.021428   0.023671  -0.004152
     2  C   -0.005164   6.092559  -0.165885  -0.083591  -0.041374  -0.020433
     3  C    0.130228  -0.165885   5.803587   0.403232   0.095311  -0.023455
     4  H    0.021428  -0.083591   0.403232   0.480238  -0.018000   0.001952
     5  C    0.023671  -0.041374   0.095311  -0.018000   5.288831   0.144087
     6  O   -0.004152  -0.020433  -0.023455   0.001952   0.144087   8.399219
     7  C   -0.027046   0.100655  -0.230291   0.009812  -0.107958   0.236338
     8  O    0.002029   0.015421  -0.019262  -0.000469   0.015434  -0.114997
     9  O   -0.024033  -0.125466   0.312955  -0.031665  -0.075693  -0.154473
    10  H    0.403157  -0.048172   0.008125   0.000242   0.000701   0.000044
    11  H    0.429209  -0.081922   0.000055   0.002363   0.008026  -0.000108
    12  H    0.013719   0.310799   0.001167   0.002307   0.005566  -0.000486
    13  H    0.007710  -0.006460  -0.032223  -0.005059   0.403383  -0.036271
    14  H   -0.018160   0.050838  -0.128464   0.002927   0.439086  -0.035371
               7          8          9         10         11         12
     1  C   -0.027046   0.002029  -0.024033   0.403157   0.429209   0.013719
     2  C    0.100655   0.015421  -0.125466  -0.048172  -0.081922   0.310799
     3  C   -0.230291  -0.019262   0.312955   0.008125   0.000055   0.001167
     4  H    0.009812  -0.000469  -0.031665   0.000242   0.002363   0.002307
     5  C   -0.107958   0.015434  -0.075693   0.000701   0.008026   0.005566
     6  O    0.236338  -0.114997  -0.154473   0.000044  -0.000108  -0.000486
     7  C    4.547630   0.482694   0.183620   0.000132  -0.000287  -0.003242
     8  O    0.482694   8.303283  -0.106558  -0.000004   0.000001  -0.000081
     9  O    0.183620  -0.106558   8.370034   0.000141   0.000329   0.001847
    10  H    0.000132  -0.000004   0.000141   0.476441  -0.023536  -0.004556
    11  H   -0.000287   0.000001   0.000329  -0.023536   0.478200   0.003265
    12  H   -0.003242  -0.000081   0.001847  -0.004556   0.003265   0.464887
    13  H    0.003710  -0.000481   0.003946   0.000005  -0.000041  -0.000014
    14  H    0.016574  -0.000253   0.004472  -0.000028   0.000052   0.001090
              13         14
     1  C    0.007710  -0.018160
     2  C   -0.006460   0.050838
     3  C   -0.032223  -0.128464
     4  H   -0.005059   0.002927
     5  C    0.403383   0.439086
     6  O   -0.036271  -0.035371
     7  C    0.003710   0.016574
     8  O   -0.000481  -0.000253
     9  O    0.003946   0.004472
    10  H    0.000005  -0.000028
    11  H   -0.000041   0.000052
    12  H   -0.000014   0.001090
    13  H    0.472035  -0.029549
    14  H   -0.029549   0.483063
 Mulliken charges:
               1
     1  C   -0.354345
     2  C    0.008195
     3  C   -0.155079
     4  H    0.214282
     5  C   -0.181071
     6  O   -0.391894
     7  C    0.787659
     8  O   -0.576758
     9  O   -0.359455
    10  H    0.187309
    11  H    0.184393
    12  H    0.203733
    13  H    0.219308
    14  H    0.213722
 Sum of Mulliken charges =   0.00000
 Mulliken charges with hydrogens summed into heavy atoms:
               1
     1  C    0.017357
     2  C    0.211928
     3  C    0.059203
     5  C    0.251960
     6  O   -0.391894
     7  C    0.787659
     8  O   -0.576758
     9  O   -0.359455
 Electronic spatial extent (au):  <R**2>=            980.2064
 Charge=              0.0000 electrons
 Dipole moment (field-independent basis, Debye):
    X=              6.9739    Y=              3.7443    Z=              0.9914  Tot=              7.9774
 Quadrupole moment (field-independent basis, Debye-Ang):
   XX=            -55.9890   YY=            -49.1476   ZZ=            -42.2387
   XY=             -3.1375   XZ=             -1.2758   YZ=              1.7418
 Traceless Quadrupole moment (field-independent basis, Debye-Ang):
   XX=             -6.8639   YY=             -0.0225   ZZ=              6.8864
   XY=             -3.1375   XZ=             -1.2758   YZ=              1.7418
 Octapole moment (field-independent basis, Debye-Ang**2):
  XXX=             44.5693  YYY=             12.8785  ZZZ=              1.5359  XYY=              1.5003
  XXY=              4.9511  XXZ=              4.5875  XZZ=              1.9506  YZZ=              1.4726
  YYZ=              1.4646  XYZ=              1.1562
 Hexadecapole moment (field-independent basis, Debye-Ang**3):
 XXXX=           -976.5457 YYYY=           -237.0234 ZZZZ=            -87.1747 XXXY=            -44.5884
 XXXZ=            -14.0732 YYYX=              4.4256 YYYZ=              2.6603 ZZZX=              1.8589
 ZZZY=              1.9521 XXYY=           -224.2700 XXZZ=           -159.0842 YYZZ=            -53.5623
 XXYZ=              3.5299 YYXZ=             -1.1130 ZZXY=             -0.8295
 N-N= 3.726928826139D+02 E-N=-1.725522600200D+03  KE= 4.161912674396D+02
 No NMR shielding tensors so no spin-rotation constants.
 Leave Link  601 at Mon May 16 16:21:04 2022, MaxMem=  2147483648 cpu:         2.8
 (Enter /gpfs/runtime/opt/gaussian/g09-D01/g09/l701.exe)
 Compute integral first derivatives.
 ... and contract with generalized density number  0.
 R6Disp: Adding Grimme-D3 dispersion energy 1st derivatives to the gradient.
 D1PCM: PCM CHGder 1st derivatives, ID1Alg=3 FixD1E=F DoIter=F DoCFld=F I1PDM=0.
 GePol: Maximum number of non-zero 1st derivatives   =     308
 Leave Link  701 at Mon May 16 16:21:05 2022, MaxMem=  2147483648 cpu:        10.1
 (Enter /gpfs/runtime/opt/gaussian/g09-D01/g09/l702.exe)
 L702 exits ... SP integral derivatives will be done elsewhere.
 Leave Link  702 at Mon May 16 16:21:05 2022, MaxMem=  2147483648 cpu:         0.1
 (Enter /gpfs/runtime/opt/gaussian/g09-D01/g09/l703.exe)
 Compute integral first derivatives, UseDBF=F ICtDFT=           0.
 Integral derivatives from FoFJK, PRISM(SPDF).
 Calling FoFJK, ICntrl=      2127 FMM=F ISym2X=0 I1Cent= 0 IOpClX= 0 NMat=1 NMatS=1 NMatT=0.
 FoFJK:  IHMeth= 1 ICntrl=    2127 DoSepK=F KAlg= 0 I1Cent=   0 FoldK=F
 IRaf=         0 NMat=   1 IRICut=       1 DoRegI=T DoRafI=F ISym2E= 0.
 FoFCou: FMM=F IPFlag=           0 FMFlag=      100000 FMFlg1=         800
         NFxFlg=           0 DoJE=F BraDBF=F KetDBF=F FulRan=T
         wScrn=  0.000000 ICntrl=    2127 IOpCl=  0 I1Cent=           0 NGrid=           0
         NMat0=    1 NMatS0=      1 NMatT0=    0 NMatD0=    1 NMtDS0=    0 NMtDT0=    0
 Symmetry not used in FoFCou.
 Leave Link  703 at Mon May 16 16:21:08 2022, MaxMem=  2147483648 cpu:        16.1
 (Enter /gpfs/runtime/opt/gaussian/g09-D01/g09/l716.exe)
 Dipole        = 2.74376255D+00 1.47311568D+00 3.90051171D-01
 ***** Axes restored to original set *****
 -------------------------------------------------------------------
 Center     Atomic                   Forces (Hartrees/Bohr)
 Number     Number              X              Y              Z
 -------------------------------------------------------------------
      1        6           0.019746734    0.002999796   -0.003096368
      2        6          -0.021796203    0.003856049   -0.008504193
      3        6           0.004671018   -0.002712804    0.017003891
      4        1          -0.002731133    0.006016384   -0.001574169
      5        6          -0.005360918    0.006997388   -0.003482911
      6        8           0.018000619   -0.001974832   -0.004314347
      7        6          -0.025583970    0.014617605    0.003241405
      8        8           0.014878542   -0.008395373   -0.001858339
      9        8           0.005760451   -0.016669081   -0.001706762
     10        1           0.006249697   -0.000286021   -0.000323921
     11        1           0.005219076    0.001319885   -0.004674623
     12        1          -0.007545962   -0.001293762    0.005187595
     13        1          -0.005614314   -0.002095396    0.001699912
     14        1          -0.005893637   -0.002379836    0.002402830
 -------------------------------------------------------------------
 Cartesian Forces:  Max     0.025583970 RMS     0.009154959
 Leave Link  716 at Mon May 16 16:21:08 2022, MaxMem=  2147483648 cpu:         0.2
 (Enter /gpfs/runtime/opt/gaussian/g09-D01/g09/l103.exe)

 GradGradGradGradGradGradGradGradGradGradGradGradGradGradGradGradGradGrad
 Berny optimization.
 FormGI is forming the generalized inverse of G from B-inverse, IUseBI=4.
 Internal  Forces:  Max     0.032371177 RMS     0.006198981
 Search for a local minimum.
 Step number   1 out of a maximum of   76
 All quantities printed in internal units (Hartrees-Bohrs-Radians)
 RMS Force = .61990D-02 SwitMx=.10000D-02 MixMth= 1
 Mixed Optimization -- RFO/linear search
 Second derivative matrix not updated -- first step.
 ITU=  0
     Eigenvalues ---    0.00518   0.00674   0.01714   0.01716   0.02503
     Eigenvalues ---    0.03279   0.03279   0.04641   0.05212   0.05744
     Eigenvalues ---    0.06091   0.07849   0.10668   0.10786   0.15443
     Eigenvalues ---    0.16000   0.16000   0.16000   0.20540   0.22000
     Eigenvalues ---    0.24661   0.25000   0.27794   0.31658   0.34803
     Eigenvalues ---    0.34807   0.34819   0.35380   0.35989   0.35994
     Eigenvalues ---    0.36002   0.37096   0.53056   0.56192   0.64487
     Eigenvalues ---    0.97952
 RFO step:  Lambda=-8.68753316D-03 EMin= 5.17587728D-03
 Linear search not attempted -- first point.
 Iteration  1 RMS(Cart)=  0.04928936 RMS(Int)=  0.00140512
 Iteration  2 RMS(Cart)=  0.00147103 RMS(Int)=  0.00064627
 Iteration  3 RMS(Cart)=  0.00000132 RMS(Int)=  0.00064627
 Iteration  4 RMS(Cart)=  0.00000000 RMS(Int)=  0.00064627
 ITry= 1 IFail=0 DXMaxC= 1.71D-01 DCOld= 1.00D+10 DXMaxT= 3.00D-01 DXLimC= 3.00D+00 Rises=F
 Variable       Old X    -DE/DX   Delta X   Delta X   Delta X     New X
                                 (Linear)    (Quad)   (Total)
    R1        2.47557   0.03237   0.00000   0.04953   0.04953   2.52510
    R2        2.04091   0.00433   0.00000   0.01175   0.01175   2.05266
    R3        2.04078   0.00550   0.00000   0.01492   0.01492   2.05570
    R4        2.84773  -0.00459   0.00000  -0.01412  -0.01412   2.83361
    R5        2.04099   0.00646   0.00000   0.01752   0.01752   2.05850
    R6        2.05990   0.00037   0.00000   0.00103   0.00103   2.06093
    R7        2.91175   0.00333   0.00000   0.01318   0.01297   2.92473
    R8        2.75415  -0.00746   0.00000  -0.01850  -0.01850   2.73565
    R9        2.75416  -0.01181   0.00000  -0.03134  -0.03144   2.72272
   R10        2.05996  -0.00023   0.00000  -0.00064  -0.00064   2.05932
   R11        2.05970   0.00036   0.00000   0.00101   0.00101   2.06071
   R12        2.52699  -0.00133   0.00000  -0.00328  -0.00314   2.52385
   R13        2.29470  -0.01717   0.00000  -0.01737  -0.01737   2.27733
   R14        2.53254  -0.00092   0.00000  -0.00208  -0.00188   2.53066
    A1        2.09433   0.00283   0.00000   0.01676   0.01674   2.11107
    A2        2.09445   0.00314   0.00000   0.01857   0.01855   2.11300
    A3        2.09440  -0.00597   0.00000  -0.03538  -0.03540   2.05900
    A4        2.09438   0.00933   0.00000   0.04078   0.04055   2.13493
    A5        2.09445   0.00207   0.00000   0.01954   0.01928   2.11374
    A6        2.09435  -0.01140   0.00000  -0.06032  -0.06054   2.03382
    A7        1.92837  -0.00302   0.00000  -0.00184  -0.00396   1.92441
    A8        1.92932   0.00877   0.00000   0.05881   0.05828   1.98759
    A9        1.92939  -0.00015   0.00000  -0.00552  -0.00527   1.92412
   A10        1.92930   0.00167   0.00000   0.02579   0.02427   1.95358
   A11        1.92927  -0.00111   0.00000  -0.05150  -0.05124   1.87803
   A12        1.81553  -0.00616   0.00000  -0.02667  -0.02670   1.78883
   A13        1.81335   0.00125   0.00000   0.00589   0.00585   1.81921
   A14        1.92933   0.00463   0.00000   0.04126   0.04059   1.96992
   A15        1.92936   0.00435   0.00000   0.04363   0.04295   1.97231
   A16        1.92922  -0.00419   0.00000  -0.04537  -0.04559   1.88363
   A17        1.92940  -0.00442   0.00000  -0.04612  -0.04607   1.88333
   A18        1.93028  -0.00144   0.00000   0.00088  -0.00213   1.92815
   A19        1.90554   0.00552   0.00000   0.02040   0.02024   1.92578
   A20        2.14810   0.00415   0.00000   0.01654   0.01644   2.16454
   A21        1.98773  -0.00910   0.00000  -0.03613  -0.03599   1.95174
   A22        2.14735   0.00494   0.00000   0.01959   0.01949   2.16685
   A23        1.90262   0.00849   0.00000   0.03648   0.03653   1.93914
    D1        3.14157   0.00175   0.00000   0.04990   0.05042  -3.09119
    D2        0.00000   0.00070   0.00000   0.00927   0.00874   0.00874
    D3       -0.00484   0.00127   0.00000   0.03821   0.03874   0.03390
    D4        3.13677   0.00022   0.00000  -0.00242  -0.00294   3.13383
    D5       -0.01224  -0.00370   0.00000  -0.06525  -0.06477  -0.07701
    D6        2.12900   0.00235   0.00000   0.00645   0.00683   2.13583
    D7       -2.15350  -0.00011   0.00000   0.00511   0.00535  -2.14815
    D8        3.12933  -0.00265   0.00000  -0.02463  -0.02488   3.10445
    D9       -1.01261   0.00340   0.00000   0.04708   0.04672  -0.96589
   D10        0.98808   0.00094   0.00000   0.04574   0.04524   1.03331
   D11        2.07010  -0.00091   0.00000  -0.00207  -0.00248   2.06763
   D12       -2.14319  -0.00288   0.00000  -0.03194  -0.03305  -2.17624
   D13       -0.00002   0.00146   0.00000   0.02753   0.02750   0.02748
   D14       -2.07238   0.00241   0.00000   0.05357   0.05438  -2.01801
   D15       -0.00249   0.00044   0.00000   0.02370   0.02380   0.02131
   D16        2.14068   0.00478   0.00000   0.08316   0.08435   2.22503
   D17       -0.00122  -0.00155   0.00000  -0.00934  -0.00910  -0.01032
   D18        2.06868  -0.00352   0.00000  -0.03921  -0.03968   2.02900
   D19       -2.07134   0.00082   0.00000   0.02026   0.02087  -2.05046
   D20       -2.06910  -0.00480   0.00000  -0.04131  -0.04081  -2.10991
   D21        2.07336  -0.00009   0.00000   0.00010   0.00063   2.07398
   D22        0.00217   0.00196   0.00000   0.01004   0.00986   0.01203
   D23       -0.00011   0.00068   0.00000   0.00582   0.00585   0.00575
   D24       -2.07007  -0.00342   0.00000  -0.02385  -0.02252  -2.09259
   D25        2.06999   0.00433   0.00000   0.03790   0.03672   2.10671
   D26       -3.14092  -0.00003   0.00000   0.01211   0.01207  -3.12885
   D27        0.00159   0.00058   0.00000   0.00041   0.00019   0.00178
   D28       -0.00245  -0.00169   0.00000  -0.00703  -0.00688  -0.00933
   D29        3.14007  -0.00107   0.00000  -0.01873  -0.01878   3.12129
         Item               Value     Threshold  Converged?
 Maximum Force            0.032371     0.000450     NO 
 RMS     Force            0.006199     0.000300     NO 
 Maximum Displacement     0.171499     0.001800     NO 
 RMS     Displacement     0.049097     0.001200     NO 
 Predicted change in Energy=-4.640612D-03
 Lowest energy point so far.  Saving SCF results.
 GradGradGradGradGradGradGradGradGradGradGradGradGradGradGradGradGradGrad

 Leave Link  103 at Mon May 16 16:21:09 2022, MaxMem=  2147483648 cpu:         7.3
 (Enter /gpfs/runtime/opt/gaussian/g09-D01/g09/l202.exe)
                          Input orientation:                          
 ---------------------------------------------------------------------
 Center     Atomic      Atomic             Coordinates (Angstroms)
 Number     Number       Type             X           Y           Z
 ---------------------------------------------------------------------
      1          6           0        3.159704    0.445538    0.056784
      2          6           0        1.909004    0.242161    0.480915
      3          6           0        0.793365   -0.115990   -0.454781
      4          1           0        1.146124   -0.100224   -1.486629
      5          6           0        0.086164   -1.447731   -0.105922
      6          8           0       -1.275892   -1.064813    0.166263
      7          6           0       -1.426326    0.253697    0.015811
      8          8           0       -2.464600    0.838635    0.195051
      9          8           0       -0.281458    0.847511   -0.344787
     10          1           0        3.960280    0.658387    0.759386
     11          1           0        3.410334    0.388093   -1.000219
     12          1           0        1.658652    0.292439    1.539876
     13          1           0        0.076703   -2.152571   -0.936979
     14          1           0        0.487047   -1.920934    0.791031
 ---------------------------------------------------------------------
                    Distance matrix (angstroms):
                    1          2          3          4          5
     1  C    0.000000
     2  C    1.336226   0.000000
     3  C    2.485272   1.499483   0.000000
     4  H    2.595089   2.137859   1.090596   0.000000
     5  C    3.613529   2.553989   1.547698   2.201282   0.000000
     6  O    4.686968   3.456986   2.359615   3.086850   1.440800
     7  C    4.590224   3.367622   2.298946   3.000014   2.279759
     8  O    5.639720   4.423338   3.456577   4.092289   3.438670
     9  O    3.487756   2.417924   1.447646   2.059125   2.336737
    10  H    1.086221   2.111521   3.478967   3.679612   4.493692
    11  H    1.087828   2.114011   2.720318   2.366790   3.901298
    12  H    2.115694   1.089313   2.212282   3.094608   2.865233
    13  H    4.152425   3.332040   2.212189   2.378635   1.089746
    14  H    3.644504   2.607128   2.214430   2.989499   1.090483
                    6          7          8          9         10
     6  O    0.000000
     7  C    1.335566   0.000000
     8  O    2.244320   1.205111   0.000000
     9  O    2.215188   1.339167   2.248914   0.000000
    10  H    5.544250   5.452723   6.452135   4.387175   0.000000
    11  H    5.043048   4.944053   6.012197   3.777563   1.863252
    12  H    3.512904   3.441127   4.371280   2.761174   2.457758
    13  H    2.056666   2.992830   4.084976   3.078874   5.085402
    14  H    2.056996   2.998497   4.084438   3.089494   4.326343
                   11         12         13         14
    11  H    0.000000
    12  H    3.087009   0.000000
    13  H    4.191905   3.823015   0.000000
    14  H    4.133496   2.613895   1.791105   0.000000
 Stoichiometry    C5H6O3
 Framework group  C1[X(C5H6O3)]
 Deg. of freedom    36
 Full point group                 C1      NOp   1
 RotChk:  IX=0 Diff= 2.21D-02
 Largest Abelian subgroup         C1      NOp   1
 Largest concise Abelian subgroup C1      NOp   1
                         Standard orientation:                         
 ---------------------------------------------------------------------
 Center     Atomic      Atomic             Coordinates (Angstroms)
 Number     Number       Type             X           Y           Z
 ---------------------------------------------------------------------
      1          6           0        3.075305   -0.400000   -0.045548
      2          6           0        1.820726   -0.238139   -0.476052
      3          6           0        0.695435    0.118151    0.448732
      4          1           0        1.046932    0.138565    1.480930
      5          6           0       -0.042939    1.422700    0.063600
      6          8           0       -1.395026    1.000055   -0.199345
      7          6           0       -1.514060   -0.317168   -0.013630
      8          8           0       -2.537759   -0.931440   -0.177960
      9          8           0       -0.355838   -0.873456    0.363770
     10          1           0        3.881795   -0.612379   -0.741497
     11          1           0        3.322911   -0.308195    1.009740
     12          1           0        1.573228   -0.322827   -1.533490
     13          1           0       -0.070518    2.149174    0.875401
     14          1           0        0.347832    1.881123   -0.845410
 ---------------------------------------------------------------------
 Rotational constants (GHZ):      5.3098963      1.3730592      1.1724643
 Leave Link  202 at Mon May 16 16:21:09 2022, MaxMem=  2147483648 cpu:         0.2
 (Enter /gpfs/runtime/opt/gaussian/g09-D01/g09/l301.exe)
 Standard basis: 6-31+G(d,p) (6D, 7F)
 Ernie: Thresh=  0.10000D-02 Tol=  0.10000D-05 Strict=F.
 There are   182 symmetry adapted cartesian basis functions of A   symmetry.
 There are   182 symmetry adapted basis functions of A   symmetry.
   182 basis functions,   298 primitive gaussians,   182 cartesian basis functions
    30 alpha electrons       30 beta electrons
       nuclear repulsion energy       372.1372374074 Hartrees.
 IExCor= 4336 DFT=T Ex+Corr=M062X ExCW=0 ScaHFX=  0.540000
 ScaDFX=  1.000000  1.000000  1.000000  1.000000 ScalE2=  1.000000  1.000000
 IRadAn=      0 IRanWt=     -1 IRanGd=            0 ICorTp=0 IEmpDi=131
 NAtoms=   14 NActive=   14 NUniq=   14 SFac= 1.00D+00 NAtFMM=   60 NAOKFM=F Big=F
 Integral buffers will be    131072 words long.
 Raffenetti 2 integral format.
 Two-electron integral symmetry is turned on.
 R6Disp:  Grimme-D3 Dispersion energy=       -0.0002908180 Hartrees.
 Nuclear repulsion after empirical dispersion term =      372.1369465894 Hartrees.
 ------------------------------------------------------------------------------
 Polarizable Continuum Model (PCM)
 =================================
 Model                : PCM (using non-symmetric T matrix).
 Atomic radii         : SMD-Coulomb.
 Polarization charges : Total charges.
 Charge compensation  : None.
 Solution method      : On-the-fly selection.
 Cavity type          : VdW (van der Waals Surface) (Alpha=1.000).
 Cavity algorithm     : GePol (No added spheres)
                        Default sphere list used, NSphG=   14.
                        Lebedev-Laikov grids with approx.  5.0 points / Ang**2.
                        Smoothing algorithm: Karplus/York (Gamma=1.0000).
                        Polarization charges: spherical gaussians, with
                                              point-specific exponents (IZeta= 3).
                        Self-potential: point-specific (ISelfS= 7).
                        Self-field    : sphere-specific E.n sum rule (ISelfD= 2).
 1st derivatives      : Analytical E(r).r(x)/FMM algorithm (CHGder, D1EAlg=3).
                        Cavity 1st derivative terms included.
 Solvent              : DiMethylSulfoxide, Eps=  46.826000 Eps(inf)=   2.007889
 ------------------------------------------------------------------------------
 Spheres list:
 ISph  on   Nord     Re0    Alpha      Xe            Ye            Ze
    1   C      1    1.8500  1.000      3.075305     -0.400000     -0.045548
    2   C      2    1.8500  1.000      1.820726     -0.238139     -0.476052
    3   C      3    1.8500  1.000      0.695435      0.118151      0.448732
    4   H      4    1.2000  1.000      1.046932      0.138565      1.480930
    5   C      5    1.8500  1.000     -0.042939      1.422700      0.063600
    6   O      6    2.2940  1.000     -1.395026      1.000055     -0.199345
    7   C      7    1.8500  1.000     -1.514060     -0.317168     -0.013630
    8   O      8    2.2940  1.000     -2.537759     -0.931440     -0.177960
    9   O      9    2.2940  1.000     -0.355838     -0.873456      0.363770
   10   H     10    1.2000  1.000      3.881795     -0.612379     -0.741497
   11   H     11    1.2000  1.000      3.322911     -0.308195      1.009740
   12   H     12    1.2000  1.000      1.573228     -0.322827     -1.533490
   13   H     13    1.2000  1.000     -0.070518      2.149174      0.875401
   14   H     14    1.2000  1.000      0.347832      1.881123     -0.845410
 ------------------------------------------------------------------------------
 GePol: Number of generator spheres                  =      14
 GePol: Total number of spheres                      =      14
 GePol: Number of exposed spheres                    =      14 (100.00%)
 GePol: Number of points                             =    1346
 GePol: Average weight of points                     =       0.12
 GePol: Minimum weight of points                     =   0.10D-08
 GePol: Maximum weight of points                     =    0.17992
 GePol: Number of points with low weight             =      51
 GePol: Fraction of low-weight points (<1% of avg)   =       3.79%
 GePol: Cavity surface area                          =    166.764 Ang**2
 GePol: Cavity volume                                =    157.070 Ang**3
 ------------------------------------------------------------------------------
 Atomic radii for non-electrostatic terms: SMD-CDS.
 ------------------------------------------------------------------------------
 PCM non-electrostatic energy =        -0.0007928624 Hartrees.
 Nuclear repulsion after PCM non-electrostatic terms =      372.1361537270 Hartrees.
 Leave Link  301 at Mon May 16 16:21:09 2022, MaxMem=  2147483648 cpu:         0.6
 (Enter /gpfs/runtime/opt/gaussian/g09-D01/g09/l302.exe)
 NPDir=0 NMtPBC=     1 NCelOv=     1 NCel=       1 NClECP=     1 NCelD=      1
         NCelK=      1 NCelE2=     1 NClLst=     1 CellRange=     0.0.
 One-electron integrals computed using PRISM.
 NBasis=   182 RedAO= T EigKep=  3.32D-05  NBF=   182
 NBsUse=   182 1.00D-06 EigRej= -1.00D+00 NBFU=   182
 Precomputing XC quadrature grid using
 IXCGrd= 4 IRadAn=           0 IRanWt=          -1 IRanGd=           0 AccXCQ= 0.00D+00.
 Generated NRdTot=       0 NPtTot=           0 NUsed=           0 NTot=          32
 NSgBfM=   182   182   182   182   182 MxSgAt=    14 MxSgA2=    14.
 Leave Link  302 at Mon May 16 16:21:10 2022, MaxMem=  2147483648 cpu:         5.3
 (Enter /gpfs/runtime/opt/gaussian/g09-D01/g09/l303.exe)
 DipDrv:  MaxL=1.
 Leave Link  303 at Mon May 16 16:21:10 2022, MaxMem=  2147483648 cpu:         0.2
 (Enter /gpfs/runtime/opt/gaussian/g09-D01/g09/l401.exe)
 Initial guess from the checkpoint file:  "/gpfs/data/yqi27/cgu13/CHEM1560Q/Gaussian/4427-96-7/inp0/Gau-76992.chk"
 B after Tr=     0.000000    0.000000    0.000000
         Rot=    0.999971    0.004010   -0.000322   -0.006457 Ang=   0.87 deg.
 Guess basis will be translated and rotated to current coordinates.
 JPrj=2 DoOrth=T DoCkMO=T.
 Generating alternative initial guess.
 ExpMin= 4.38D-02 ExpMax= 5.48D+03 ExpMxC= 8.25D+02 IAcc=2 IRadAn=         4 AccDes= 0.00D+00
 Harris functional with IExCor= 1009 and IRadAn=       4 diagonalized for initial guess.
 HarFok:  IExCor= 1009 AccDes= 0.00D+00 IRadAn=         4 IDoV= 1 UseB2=F ITyADJ=14
 ICtDFT=  3500011 ScaDFX=  1.000000  1.000000  1.000000  1.000000
 FoFCou: FMM=F IPFlag=           0 FMFlag=      100000 FMFlg1=           0
         NFxFlg=           0 DoJE=T BraDBF=F KetDBF=T FulRan=T
         wScrn=  0.000000 ICntrl=     500 IOpCl=  0 I1Cent=   200000004 NGrid=           0
         NMat0=    1 NMatS0=      1 NMatT0=    0 NMatD0=    1 NMtDS0=    0 NMtDT0=    0
 Petite list used in FoFCou.
 Harris En= -419.443313008605    
 Leave Link  401 at Mon May 16 16:21:10 2022, MaxMem=  2147483648 cpu:         2.7
 (Enter /gpfs/runtime/opt/gaussian/g09-D01/g09/l502.exe)
 Closed shell SCF:
 Using DIIS extrapolation, IDIIS=  1040.
 Integral symmetry usage will be decided dynamically.
 Keep R1 ints in memory in canonical form, NReq=143844912.
 IVT=      120738 IEndB=      120738 NGot=  2147483648 MDV=  2008693380
 LenX=  2008693380 LenY=  2008659815
 Requested convergence on RMS density matrix=1.00D-08 within 128 cycles.
 Requested convergence on MAX density matrix=1.00D-06.
 Requested convergence on             energy=1.00D-06.
 No special actions if energy rises.
 FoFCou: FMM=F IPFlag=           0 FMFlag=           0 FMFlg1=           0
         NFxFlg=           0 DoJE=F BraDBF=F KetDBF=F FulRan=T
         wScrn=  0.000000 ICntrl=     600 IOpCl=  0 I1Cent=           0 NGrid=           0
         NMat0=    1 NMatS0=  16653 NMatT0=    0 NMatD0=    1 NMtDS0=    0 NMtDT0=    0
 Symmetry not used in FoFCou.

 Cycle   1  Pass 1  IDiag  1:
 Inv3:  Mode=1 IEnd=     5435148.
 Iteration    1 A*A^-1 deviation from unit magnitude is 5.33D-15 for     19.
 Iteration    1 A*A^-1 deviation from orthogonality  is 4.48D-15 for   1075    978.
 Iteration    1 A^-1*A deviation from unit magnitude is 5.33D-15 for   1122.
 Iteration    1 A^-1*A deviation from orthogonality  is 2.35D-13 for    641    615.
 E= -419.659460090169    
 DIIS: error= 1.68D-03 at cycle   1 NSaved=   1.
 NSaved= 1 IEnMin= 1 EnMin= -419.659460090169     IErMin= 1 ErrMin= 1.68D-03
 ErrMax= 1.68D-03  0.00D+00 EMaxC= 1.00D-01 BMatC= 1.60D-03 BMatP= 1.60D-03
 IDIUse=3 WtCom= 9.83D-01 WtEn= 1.68D-02
 Coeff-Com:  0.100D+01
 Coeff-En:   0.100D+01
 Coeff:      0.100D+01
 Gap=     0.683 Goal=   None    Shift=    0.000
 GapD=    0.683 DampG=2.000 DampE=1.000 DampFc=2.0000 IDamp=-1.
 RMSDP=9.53D-04 MaxDP=3.33D-02              OVMax= 1.00D-02

 Cycle   2  Pass 1  IDiag  1:
 E= -419.661823950368     Delta-E=       -0.002363860199 Rises=F Damp=F
 DIIS: error= 4.05D-04 at cycle   2 NSaved=   2.
 NSaved= 2 IEnMin= 2 EnMin= -419.661823950368     IErMin= 2 ErrMin= 4.05D-04
 ErrMax= 4.05D-04  0.00D+00 EMaxC= 1.00D-01 BMatC= 1.16D-04 BMatP= 1.60D-03
 IDIUse=3 WtCom= 9.96D-01 WtEn= 4.05D-03
 Coeff-Com:  0.159D-01 0.984D+00
 Coeff-En:   0.000D+00 0.100D+01
 Coeff:      0.158D-01 0.984D+00
 Gap=     0.349 Goal=   None    Shift=    0.000
 RMSDP=1.62D-04 MaxDP=4.87D-03 DE=-2.36D-03 OVMax= 3.75D-03

 Cycle   3  Pass 1  IDiag  1:
 E= -419.661912786807     Delta-E=       -0.000088836439 Rises=F Damp=F
 DIIS: error= 4.57D-04 at cycle   3 NSaved=   3.
 NSaved= 3 IEnMin= 3 EnMin= -419.661912786807     IErMin= 2 ErrMin= 4.05D-04
 ErrMax= 4.57D-04  0.00D+00 EMaxC= 1.00D-01 BMatC= 8.21D-05 BMatP= 1.16D-04
 IDIUse=3 WtCom= 9.95D-01 WtEn= 4.57D-03
 Coeff-Com: -0.603D-01 0.472D+00 0.588D+00
 Coeff-En:   0.000D+00 0.847D-01 0.915D+00
 Coeff:     -0.600D-01 0.470D+00 0.590D+00
 Gap=     0.348 Goal=   None    Shift=    0.000
 RMSDP=6.37D-05 MaxDP=1.90D-03 DE=-8.88D-05 OVMax= 2.38D-03

 Cycle   4  Pass 1  IDiag  1:
 E= -419.661976236877     Delta-E=       -0.000063450070 Rises=F Damp=F
 DIIS: error= 1.55D-04 at cycle   4 NSaved=   4.
 NSaved= 4 IEnMin= 4 EnMin= -419.661976236877     IErMin= 4 ErrMin= 1.55D-04
 ErrMax= 1.55D-04  0.00D+00 EMaxC= 1.00D-01 BMatC= 7.14D-06 BMatP= 8.21D-05
 IDIUse=3 WtCom= 9.98D-01 WtEn= 1.55D-03
 Coeff-Com: -0.275D-01 0.114D+00 0.272D+00 0.641D+00
 Coeff-En:   0.000D+00 0.000D+00 0.000D+00 0.100D+01
 Coeff:     -0.274D-01 0.114D+00 0.272D+00 0.642D+00
 Gap=     0.348 Goal=   None    Shift=    0.000
 RMSDP=2.08D-05 MaxDP=6.19D-04 DE=-6.35D-05 OVMax= 7.27D-04

 Cycle   5  Pass 1  IDiag  1:
 E= -419.661981614707     Delta-E=       -0.000005377830 Rises=F Damp=F
 DIIS: error= 3.39D-05 at cycle   5 NSaved=   5.
 NSaved= 5 IEnMin= 5 EnMin= -419.661981614707     IErMin= 5 ErrMin= 3.39D-05
 ErrMax= 3.39D-05  0.00D+00 EMaxC= 1.00D-01 BMatC= 6.02D-07 BMatP= 7.14D-06
 IDIUse=1 WtCom= 1.00D+00 WtEn= 0.00D+00
 Coeff-Com: -0.353D-02-0.127D-01 0.377D-01 0.261D+00 0.718D+00
 Coeff:     -0.353D-02-0.127D-01 0.377D-01 0.261D+00 0.718D+00
 Gap=     0.348 Goal=   None    Shift=    0.000
 RMSDP=8.66D-06 MaxDP=3.87D-04 DE=-5.38D-06 OVMax= 2.27D-04

 Cycle   6  Pass 1  IDiag  1:
 E= -419.661982250834     Delta-E=       -0.000000636127 Rises=F Damp=F
 DIIS: error= 7.83D-06 at cycle   6 NSaved=   6.
 NSaved= 6 IEnMin= 6 EnMin= -419.661982250834     IErMin= 6 ErrMin= 7.83D-06
 ErrMax= 7.83D-06  0.00D+00 EMaxC= 1.00D-01 BMatC= 3.69D-08 BMatP= 6.02D-07
 IDIUse=1 WtCom= 1.00D+00 WtEn= 0.00D+00
 Coeff-Com:  0.141D-02-0.151D-01-0.138D-01 0.226D-01 0.219D+00 0.786D+00
 Coeff:      0.141D-02-0.151D-01-0.138D-01 0.226D-01 0.219D+00 0.786D+00
 Gap=     0.348 Goal=   None    Shift=    0.000
 RMSDP=2.59D-06 MaxDP=8.62D-05 DE=-6.36D-07 OVMax= 7.69D-05

 Cycle   7  Pass 1  IDiag  1:
 E= -419.661982290666     Delta-E=       -0.000000039832 Rises=F Damp=F
 DIIS: error= 3.77D-06 at cycle   7 NSaved=   7.
 NSaved= 7 IEnMin= 7 EnMin= -419.661982290666     IErMin= 7 ErrMin= 3.77D-06
 ErrMax= 3.77D-06  0.00D+00 EMaxC= 1.00D-01 BMatC= 9.45D-09 BMatP= 3.69D-08
 IDIUse=1 WtCom= 1.00D+00 WtEn= 0.00D+00
 Coeff-Com:  0.103D-02-0.604D-02-0.109D-01-0.161D-01 0.343D-01 0.393D+00
 Coeff-Com:  0.604D+00
 Coeff:      0.103D-02-0.604D-02-0.109D-01-0.161D-01 0.343D-01 0.393D+00
 Coeff:      0.604D+00
 Gap=     0.348 Goal=   None    Shift=    0.000
 RMSDP=8.73D-07 MaxDP=3.54D-05 DE=-3.98D-08 OVMax= 2.89D-05

 Cycle   8  Pass 1  IDiag  1:
 E= -419.661982300049     Delta-E=       -0.000000009383 Rises=F Damp=F
 DIIS: error= 8.72D-07 at cycle   8 NSaved=   8.
 NSaved= 8 IEnMin= 8 EnMin= -419.661982300049     IErMin= 8 ErrMin= 8.72D-07
 ErrMax= 8.72D-07  0.00D+00 EMaxC= 1.00D-01 BMatC= 3.49D-10 BMatP= 9.45D-09
 IDIUse=1 WtCom= 1.00D+00 WtEn= 0.00D+00
 Coeff-Com:  0.417D-04 0.645D-03-0.593D-03-0.603D-02-0.184D-01-0.174D-01
 Coeff-Com:  0.115D+00 0.927D+00
 Coeff:      0.417D-04 0.645D-03-0.593D-03-0.603D-02-0.184D-01-0.174D-01
 Coeff:      0.115D+00 0.927D+00
 Gap=     0.348 Goal=   None    Shift=    0.000
 RMSDP=3.03D-07 MaxDP=8.66D-06 DE=-9.38D-09 OVMax= 1.25D-05

 Cycle   9  Pass 1  IDiag  1:
 E= -419.661982300675     Delta-E=       -0.000000000626 Rises=F Damp=F
 DIIS: error= 3.46D-07 at cycle   9 NSaved=   9.
 NSaved= 9 IEnMin= 9 EnMin= -419.661982300675     IErMin= 9 ErrMin= 3.46D-07
 ErrMax= 3.46D-07  0.00D+00 EMaxC= 1.00D-01 BMatC= 1.00D-10 BMatP= 3.49D-10
 IDIUse=1 WtCom= 1.00D+00 WtEn= 0.00D+00
 Coeff-Com: -0.907D-04 0.953D-03 0.900D-03-0.115D-02-0.121D-01-0.498D-01
 Coeff-Com: -0.938D-02 0.424D+00 0.646D+00
 Coeff:     -0.907D-04 0.953D-03 0.900D-03-0.115D-02-0.121D-01-0.498D-01
 Coeff:     -0.938D-02 0.424D+00 0.646D+00
 Gap=     0.348 Goal=   None    Shift=    0.000
 RMSDP=1.03D-07 MaxDP=2.33D-06 DE=-6.26D-10 OVMax= 3.92D-06

 Cycle  10  Pass 1  IDiag  1:
 E= -419.661982300800     Delta-E=       -0.000000000124 Rises=F Damp=F
 DIIS: error= 9.75D-08 at cycle  10 NSaved=  10.
 NSaved=10 IEnMin=10 EnMin= -419.661982300800     IErMin=10 ErrMin= 9.75D-08
 ErrMax= 9.75D-08  0.00D+00 EMaxC= 1.00D-01 BMatC= 8.27D-12 BMatP= 1.00D-10
 IDIUse=1 WtCom= 1.00D+00 WtEn= 0.00D+00
 Coeff-Com: -0.345D-04 0.199D-03 0.373D-03 0.537D-03-0.977D-03-0.127D-01
 Coeff-Com: -0.194D-01-0.976D-02 0.201D+00 0.841D+00
 Coeff:     -0.345D-04 0.199D-03 0.373D-03 0.537D-03-0.977D-03-0.127D-01
 Coeff:     -0.194D-01-0.976D-02 0.201D+00 0.841D+00
 Gap=     0.348 Goal=   None    Shift=    0.000
 RMSDP=3.89D-08 MaxDP=1.29D-06 DE=-1.24D-10 OVMax= 2.05D-06

 Cycle  11  Pass 1  IDiag  1:
 E= -419.661982300811     Delta-E=       -0.000000000011 Rises=F Damp=F
 DIIS: error= 4.49D-08 at cycle  11 NSaved=  11.
 NSaved=11 IEnMin=11 EnMin= -419.661982300811     IErMin=11 ErrMin= 4.49D-08
 ErrMax= 4.49D-08  0.00D+00 EMaxC= 1.00D-01 BMatC= 1.17D-12 BMatP= 8.27D-12
 IDIUse=1 WtCom= 1.00D+00 WtEn= 0.00D+00
 Coeff-Com: -0.576D-06-0.480D-04 0.175D-04 0.316D-03 0.110D-02 0.185D-02
 Coeff-Com: -0.548D-02-0.551D-01-0.854D-02 0.300D+00 0.766D+00
 Coeff:     -0.576D-06-0.480D-04 0.175D-04 0.316D-03 0.110D-02 0.185D-02
 Coeff:     -0.548D-02-0.551D-01-0.854D-02 0.300D+00 0.766D+00
 Gap=     0.348 Goal=   None    Shift=    0.000
 RMSDP=1.24D-08 MaxDP=2.84D-07 DE=-1.07D-11 OVMax= 7.21D-07

 Cycle  12  Pass 1  IDiag  1:
 E= -419.661982300816     Delta-E=       -0.000000000006 Rises=F Damp=F
 DIIS: error= 1.42D-08 at cycle  12 NSaved=  12.
 NSaved=12 IEnMin=12 EnMin= -419.661982300816     IErMin=12 ErrMin= 1.42D-08
 ErrMax= 1.42D-08  0.00D+00 EMaxC= 1.00D-01 BMatC= 9.83D-14 BMatP= 1.17D-12
 IDIUse=1 WtCom= 1.00D+00 WtEn= 0.00D+00
 Coeff-Com:  0.436D-05-0.391D-04-0.437D-04 0.141D-04 0.417D-03 0.222D-02
 Coeff-Com:  0.996D-03-0.138D-01-0.289D-01-0.338D-01 0.192D+00 0.881D+00
 Coeff:      0.436D-05-0.391D-04-0.437D-04 0.141D-04 0.417D-03 0.222D-02
 Coeff:      0.996D-03-0.138D-01-0.289D-01-0.338D-01 0.192D+00 0.881D+00
 Gap=     0.348 Goal=   None    Shift=    0.000
 RMSDP=4.74D-09 MaxDP=1.13D-07 DE=-5.80D-12 OVMax= 2.83D-07

 Error on total polarization charges =  0.02302
 SCF Done:  E(RM062X) =  -419.661982301     A.U. after   12 cycles
            NFock= 12  Conv=0.47D-08     -V/T= 2.0084
 KE= 4.161478086305D+02 PE=-1.724391027805D+03 EE= 5.164450831466D+02
 SMD-CDS (non-electrostatic) energy       (kcal/mol) =      -0.50
 (included in total energy above)
 Leave Link  502 at Mon May 16 16:21:22 2022, MaxMem=  2147483648 cpu:        72.6
 (Enter /gpfs/runtime/opt/gaussian/g09-D01/g09/l701.exe)
 Compute integral first derivatives.
 ... and contract with generalized density number  0.
 R6Disp: Adding Grimme-D3 dispersion energy 1st derivatives to the gradient.
 D1PCM: PCM CHGder 1st derivatives, ID1Alg=3 FixD1E=F DoIter=F DoCFld=F I1PDM=0.
 GePol: Maximum number of non-zero 1st derivatives   =     315
 Leave Link  701 at Mon May 16 16:21:22 2022, MaxMem=  2147483648 cpu:         3.5
 (Enter /gpfs/runtime/opt/gaussian/g09-D01/g09/l702.exe)
 L702 exits ... SP integral derivatives will be done elsewhere.
 Leave Link  702 at Mon May 16 16:21:22 2022, MaxMem=  2147483648 cpu:         0.1
 (Enter /gpfs/runtime/opt/gaussian/g09-D01/g09/l703.exe)
 Compute integral first derivatives, UseDBF=F ICtDFT=           0.
 Integral derivatives from FoFJK, PRISM(SPDF).
 Calling FoFJK, ICntrl=      2127 FMM=F ISym2X=0 I1Cent= 0 IOpClX= 0 NMat=1 NMatS=1 NMatT=0.
 FoFJK:  IHMeth= 1 ICntrl=    2127 DoSepK=F KAlg= 0 I1Cent=   0 FoldK=F
 IRaf=         0 NMat=   1 IRICut=       1 DoRegI=T DoRafI=F ISym2E= 0.
 FoFCou: FMM=F IPFlag=           0 FMFlag=      100000 FMFlg1=         800
         NFxFlg=           0 DoJE=F BraDBF=F KetDBF=F FulRan=T
         wScrn=  0.000000 ICntrl=    2127 IOpCl=  0 I1Cent=           0 NGrid=           0
         NMat0=    1 NMatS0=      1 NMatT0=    0 NMatD0=    1 NMtDS0=    0 NMtDT0=    0
 Symmetry not used in FoFCou.
 Leave Link  703 at Mon May 16 16:21:25 2022, MaxMem=  2147483648 cpu:        15.9
 (Enter /gpfs/runtime/opt/gaussian/g09-D01/g09/l716.exe)
 Dipole        = 2.65080515D+00 1.50721685D+00 3.65330413D-01
 ***** Axes restored to original set *****
 -------------------------------------------------------------------
 Center     Atomic                   Forces (Hartrees/Bohr)
 Number     Number              X              Y              Z
 -------------------------------------------------------------------
      1        6          -0.005750512   -0.001412441    0.002452788
      2        6           0.003711964    0.000039831   -0.003442440
      3        6           0.001196079   -0.001704929    0.002541357
      4        1          -0.000707019   -0.000186166   -0.001162341
      5        6          -0.002182577    0.001052446   -0.000092944
      6        8           0.002742714   -0.000653216   -0.001112102
      7        6          -0.005911028    0.004243633    0.002578932
      8        8           0.004252165   -0.002202106   -0.001351057
      9        8           0.000465076    0.000206313   -0.000059466
     10        1           0.000146884    0.000487872   -0.000645708
     11        1           0.000373190    0.000127897   -0.000019878
     12        1          -0.000757824   -0.000134508    0.000404036
     13        1           0.001412982   -0.000005232   -0.000266053
     14        1           0.001007908    0.000140606    0.000174876
 -------------------------------------------------------------------
 Cartesian Forces:  Max     0.005911028 RMS     0.002091916
 Leave Link  716 at Mon May 16 16:21:25 2022, MaxMem=  2147483648 cpu:         0.1
 (Enter /gpfs/runtime/opt/gaussian/g09-D01/g09/l103.exe)

 GradGradGradGradGradGradGradGradGradGradGradGradGradGradGradGradGradGrad
 Berny optimization.
 Using GEDIIS/GDIIS optimizer.
 FormGI is forming the generalized inverse of G from B-inverse, IUseBI=4.
 Internal  Forces:  Max     0.005582159 RMS     0.001175053
 Search for a local minimum.
 Step number   2 out of a maximum of   76
 All quantities printed in internal units (Hartrees-Bohrs-Radians)
 RMS Force = .11751D-02 SwitMx=.10000D-02 MixMth= 1
 Mixed Optimization -- RFO/linear search
 Update second derivatives using D2CorX and points    1    2
 DE= -4.13D-03 DEPred=-4.64D-03 R= 8.89D-01
 TightC=F SS=  1.41D+00  RLast= 2.52D-01 DXNew= 5.0454D-01 7.5607D-01
 Trust test= 8.89D-01 RLast= 2.52D-01 DXMaxT set to 5.05D-01
 ITU=  1  0
[...]
                           !   Optimized Parameters   !
                           ! (Angstroms and Degrees)  !
 --------------------------                            --------------------------
 ! Name  Definition              Value          Derivative Info.                !
 --------------------------------------------------------------------------------
 ! R1    R(1,2)                  1.3313         -DE/DX =    0.0                 !
 ! R2    R(1,10)                 1.086          -DE/DX =    0.0                 !
 ! R3    R(1,11)                 1.0879         -DE/DX =    0.0                 !
 ! R4    R(2,3)                  1.4921         -DE/DX =    0.0                 !
 ! R5    R(2,12)                 1.0896         -DE/DX =    0.0                 !
 ! R6    R(3,4)                  1.0944         -DE/DX =    0.0                 !
 ! R7    R(3,5)                  1.5299         -DE/DX =    0.0                 !
 ! R8    R(3,9)                  1.4525         -DE/DX =    0.0                 !
 ! R9    R(5,6)                  1.4396         -DE/DX =    0.0                 !
 ! R10   R(5,13)                 1.0887         -DE/DX =    0.0                 !
 ! R11   R(5,14)                 1.0939         -DE/DX =    0.0                 !
 ! R12   R(6,7)                  1.3416         -DE/DX =    0.0                 !
 ! R13   R(7,8)                  1.201          -DE/DX =    0.0                 !
 ! R14   R(7,9)                  1.3421         -DE/DX =    0.0                 !
 ! A1    A(2,1,10)             121.2368         -DE/DX =    0.0                 !
 ! A2    A(2,1,11)             121.2666         -DE/DX =    0.0                 !
 ! A3    A(10,1,11)            117.4961         -DE/DX =    0.0                 !
 ! A4    A(1,2,3)              122.5779         -DE/DX =    0.0                 !
 ! A5    A(1,2,12)             121.4292         -DE/DX =    0.0                 !
 ! A6    A(3,2,12)             115.971          -DE/DX =    0.0                 !
 ! A7    A(2,3,4)              111.2475         -DE/DX =    0.0                 !
 ! A8    A(2,3,5)              114.4648         -DE/DX =    0.0                 !
 ! A9    A(2,3,9)              110.1663         -DE/DX =    0.0                 !
 ! A10   A(4,3,5)              111.5652         -DE/DX =    0.0                 !
 ! A11   A(4,3,9)              107.5054         -DE/DX =    0.0                 !
 ! A12   A(5,3,9)              101.2393         -DE/DX =    0.0                 !
 ! A13   A(3,5,6)              102.813          -DE/DX =    0.0                 !
 ! A14   A(3,5,13)             113.2408         -DE/DX =    0.0                 !
 ! A15   A(3,5,14)             112.1946         -DE/DX =    0.0                 !
 ! A16   A(6,5,13)             108.9431         -DE/DX =    0.0                 !
 ! A17   A(6,5,14)             108.5144         -DE/DX =    0.0                 !
 ! A18   A(13,5,14)            110.7123         -DE/DX =    0.0                 !
 ! A19   A(5,6,7)              108.9674         -DE/DX =    0.0                 !
 ! A20   A(6,7,8)              124.3807         -DE/DX =    0.0                 !
 ! A21   A(6,7,9)              111.1809         -DE/DX =    0.0                 !
 ! A22   A(8,7,9)              124.4378         -DE/DX =    0.0                 !
 ! A23   A(3,9,7)              109.4486         -DE/DX =    0.0                 !
 ! D1    D(10,1,2,3)          -178.0835         -DE/DX =    0.0                 !
 ! D2    D(10,1,2,12)            0.1431         -DE/DX =    0.0                 !
 ! D3    D(11,1,2,3)             1.6514         -DE/DX =    0.0                 !
 ! D4    D(11,1,2,12)          179.878          -DE/DX =    0.0                 !
 ! D5    D(1,2,3,4)             -5.1412         -DE/DX =    0.0                 !
 ! D6    D(1,2,3,5)            122.4613         -DE/DX =    0.0                 !
 ! D7    D(1,2,3,9)           -124.2594         -DE/DX =    0.0                 !
 ! D8    D(12,2,3,4)           176.542          -DE/DX =    0.0                 !
 ! D9    D(12,2,3,5)           -55.8555         -DE/DX =    0.0                 !
 ! D10   D(12,2,3,9)            57.4238         -DE/DX =    0.0                 !
 ! D11   D(2,3,5,6)            142.7845         -DE/DX =    0.0                 !
 ! D12   D(2,3,5,13)           -99.8291         -DE/DX =    0.0                 !
 ! D13   D(2,3,5,14)            26.3931         -DE/DX =    0.0                 !
 ! D14   D(4,3,5,6)            -89.7752         -DE/DX =    0.0                 !
 ! D15   D(4,3,5,13)            27.6112         -DE/DX =    0.0                 !
 ! D16   D(4,3,5,14)           153.8334         -DE/DX =    0.0                 !
 ! D17   D(9,3,5,6)             24.3229         -DE/DX =    0.0                 !
 ! D18   D(9,3,5,13)           141.7093         -DE/DX =    0.0                 !
 ! D19   D(9,3,5,14)           -92.0685         -DE/DX =    0.0                 !
 ! D20   D(2,3,9,7)           -142.1417         -DE/DX =    0.0                 !
 ! D21   D(4,3,9,7)             96.4827         -DE/DX =    0.0                 !
 ! D22   D(5,3,9,7)            -20.6222         -DE/DX =    0.0                 !
 ! D23   D(3,5,6,7)            -21.0744         -DE/DX =    0.0                 !
 ! D24   D(13,5,6,7)          -141.4658         -DE/DX =    0.0                 !
 ! D25   D(14,5,6,7)            97.9189         -DE/DX =    0.0                 !
 ! D26   D(5,6,7,8)           -171.4508         -DE/DX =    0.0                 !
 ! D27   D(5,6,7,9)              8.8118         -DE/DX =    0.0                 !
 ! D28   D(6,7,9,3)              8.5275         -DE/DX =    0.0                 !
 ! D29   D(8,7,9,3)           -171.2098         -DE/DX =    0.0                 !
 --------------------------------------------------------------------------------
 GradGradGradGradGradGradGradGradGradGradGradGradGradGradGradGradGradGrad

 Leave Link  103 at Mon May 16 16:26:35 2022, MaxMem=  2147483648 cpu:         0.1
 (Enter /gpfs/runtime/opt/gaussian/g09-D01/g09/l9999.exe)
 1\1\GINC-NODE1319\Freq\RM062X\6-31+G(d,p)\C5H6O3\ROOT\16-May-2022\0\\#
 P Geom=AllCheck Guess=TCheck SCRF=Check GenChk RM062X/6-31+G(d,p) Freq
 \\4427-96-7\\0,1\C,3.1811539007,0.4192663417,-0.0216737544\C,1.9783119
 376,0.1855024748,0.4988715731\C,0.7761458328,-0.0808308259,-0.34385066
 12\H,1.0044900532,0.0337073395,-1.4079814916\C,0.084661632,-1.41522215
 46,-0.0575357283\O,-1.3098932299,-1.0905479085,-0.2064258543\C,-1.4668
 673149,0.2341519097,-0.0635879868\O,-2.530506142,0.7869729383,0.010479
 7027\O,-0.2810254822,0.8610633351,-0.020011587\H,4.0477297722,0.580190
 9746,0.6127191345\H,3.3338176917,0.4520518836,-1.0983508315\H,1.822780
 6127,0.1501435192,1.576763222\H,0.3440796789,-2.1953728277,-0.77128049
 23\H,0.254221057,-1.7568769999,0.9676647552\\Version=EM64L-G09RevD.01\
 State=1-A\HF=-419.6632949\RMSD=3.052e-09\RMSF=1.021e-05\ZeroPoint=0.10
 93724\Thermal=0.1162937\Dipole=2.7195668,-1.3198321,-0.1829412\DipoleD
 eriv=-0.1042182,0.0460102,0.0035659,0.0772205,-0.3477589,-0.0061868,0.
 0046438,-0.0098175,0.0682085,-0.0045617,0.0936159,0.0348958,0.0327147,
 -0.324168,-0.0051427,-0.0482666,-0.0032147,0.091616,1.1002606,-0.07351
 32,-0.1060561,-0.56564,0.5018193,0.0564716,0.0481584,0.0890159,0.39252
 99,-0.014481,0.0042573,0.0118484,0.0298481,0.0378594,0.0542036,0.03341
 73,0.0067322,-0.0907418,0.7709582,-0.3704579,0.0694953,0.0228077,0.388
 1951,-0.0612185,0.0056952,-0.0217062,0.4212851,-1.221626,0.3080591,-0.
 0340609,0.4733903,-1.5142709,-0.0281948,0.0303006,-0.090601,-0.3909256
 ,3.2514797,-0.4576477,-0.1565911,-0.4173741,2.2991217,0.0705036,-0.133
 7881,0.1538283,0.5456332,-1.8548444,0.5200445,0.0875016,0.5597732,-0.9
 418371,-0.0315448,0.0940163,-0.042326,-0.5011591,-2.1283126,-0.0342968
 ,0.1289082,-0.1310904,-0.7834574,-0.0371896,0.0201839,-0.0695104,-0.40
 31442,0.0011537,-0.0403057,-0.0477767,-0.0325189,0.1944055,-0.0068338,
 -0.0741415,-0.0122895,0.0300653,0.0884829,-0.0233794,-0.0238684,-0.030
 0269,0.2050345,-0.001436,0.023242,0.006781,-0.0599428,0.0428887,-0.037
 9092,0.0300586,-0.0749485,0.1946897,0.0087963,0.0037392,0.0015527,-0.0
 594313,0.064459,0.0237349,-0.0151596,0.0380684,0.028318,-0.031816,0.02
 03947,-0.0933746,0.0385107,0.008361,0.041788,0.0172391,0.0177759,0.062
 049,0.0195878,-0.0275953,0.0849299,-0.0825039\Polar=111.9553341,-1.026
 6981,72.4332941,-6.9842599,-0.8715476,70.306098\PG=C01 [X(C5H6O3)]\NIm
 ag=0\\0.83334910,0.13731315,0.14410776,-0.07633835,-0.01813671,0.68898
 637,-0.50174924,-0.08575609,0.17207294,0.80013801,-0.08685999,-0.06867
 269,0.03404831,0.12979095,0.17918020,0.17081112,0.03346791,-0.19093198
 ,-0.13344070,-0.02397933,0.68457539,-0.02816562,-0.00793535,-0.0129045
 8,-0.16960246,-0.03533310,-0.08074221,0.54055934,-0.00819027,0.0045402
 1,-0.00529615,-0.02536146,-0.08108969,-0.01793819,0.06631606,0.4213172
 3,0.00992028,0.00171394,0.01123660,-0.07361685,-0.01968613,-0.15973367
 ,-0.00429291,-0.02240867,0.64346975,0.00092025,0.00019498,-0.00138302,
 0.00578022,0.00203843,-0.02672589,-0.06154366,-0.00997876,0.04630506,0
 .07444009,0.00062349,-0.00063429,-0.00030121,-0.00100230,0.00260311,-0
 .00692341,-0.01211256,-0.05365148,0.03573090,0.00369364,0.06151110,0.0
 0143486,0.00006451,0.00125232,0.00269095,0.00283570,-0.01787284,0.0492
 8973,0.03188611,-0.31040474,-0.05732098,-0.03096531,0.32894088,-0.0001
 9739,-0.00049268,-0.00203156,-0.01664673,-0.02160728,0.00331801,-0.078
 37712,-0.06474753,0.01512418,-0.00015397,-0.00274484,-0.00061919,0.432
 43191,0.00236106,0.00007649,0.00120242,-0.01069271,0.00053201,-0.00209
 773,-0.03375913,-0.15696525,0.02903223,-0.00262960,-0.00533831,0.00121
 808,-0.05800116,0.60664691,-0.00191960,0.00016136,-0.00151869,-0.00496
 975,-0.01622783,0.00515885,0.01111377,0.02940304,-0.09727816,0.0131419
 1,0.02906545,-0.00231415,-0.01010935,0.03547058,0.64751677,-0.00138670
 ,-0.00034897,-0.00192195,-0.00030610,-0.00705437,0.00483195,-0.0462479
 1,-0.01082058,-0.00884867,0.00072799,-0.00111435,0.00084079,-0.1976119
 8,-0.00004625,-0.02244014,0.42554524,-0.00066877,-0.00001635,-0.000999
 72,-0.00231157,-0.00113078,0.00180898,-0.00757420,-0.01380359,-0.00715
 369,-0.00100389,0.00201720,0.00044079,0.02830688,-0.08907904,0.0045238
 8,-0.04749566,0.49570059,0.00016978,-0.00004268,0.00008777,-0.00090715
 ,0.00059762,0.00024391,0.00680610,-0.00612716,0.00389547,-0.00126246,-
 0.00012104,-0.00036447,-0.01632268,0.00265832,-0.07059139,0.02957704,0
 .03251746,0.07799847,0.00220012,0.00026274,0.00178510,-0.00248375,-0.0
 0216311,-0.00116024,-0.07482017,0.03001441,0.00776029,0.00432819,-0.00
 511454,-0.00190765,-0.02097023,0.04045928,0.00221783,-0.10896590,-0.02
 864103,-0.00452315,1.02282060,0.00083795,0.00025139,0.00112466,0.00516
 160,-0.00998449,-0.00169519,-0.00157569,0.02898810,0.00251924,0.004303
 71,-0.00502322,-0.00170779,0.06592797,-0.02540588,-0.00137829,0.012405
 65,-0.26305696,-0.01901218,-0.24555691,0.67898424,-0.00027436,-0.00002
 293,-0.00029432,-0.00148860,0.00080968,0.00105263,0.00683507,0.0049586
 1,-0.00638274,0.00339199,-0.00315633,-0.00039045,0.00573513,0.00276058
 ,-0.00502111,-0.00309799,-0.02096021,-0.06619739,-0.03630984,0.0496442
 1,0.23400272,-0.00152606,-0.00006754,-0.00178310,-0.00154666,0.0030205
 3,0.00311985,0.01011535,-0.01859949,-0.00485792,-0.00249425,0.00244569
 ,0.00066522,0.01089428,0.00092154,0.00123515,-0.02058964,0.05631553,0.
 00637931,-0.61422932,0.26838689,0.03477611,0.73458570,0.00020985,0.000
 00360,0.00016029,-0.00090077,0.00135930,-0.00029348,-0.00199226,-0.000
 96527,-0.00086442,0.00014174,0.00010622,0.00014006,-0.01480656,-0.0047
 8843,-0.00334510,0.07634639,-0.05929069,-0.00709559,0.26623089,-0.2380
 1437,-0.02139187,-0.32744356,0.27415486,0.00011419,-0.00000102,0.00020
 931,0.00064264,-0.00056986,-0.00076663,-0.00065526,-0.00066195,0.00607
 441,-0.00099504,0.00086174,-0.00017612,-0.00198407,-0.00159355,0.00562
 341,0.00948764,-0.00798717,0.01835763,0.03434523,-0.02118149,-0.089144
 58,-0.04469170,0.02985946,0.04123545,-0.00250749,0.00044038,-0.0064249
 9,-0.03731396,0.02833312,0.01086528,-0.10201764,0.05488677,0.02932641,
 -0.01806321,0.01926373,0.00770064,-0.01688420,0.01548610,0.00279687,-0
 .01171572,-0.05367268,-0.00627693,-0.19963533,-0.09293417,-0.00659515,
 -0.11162021,-0.00453587,0.00269318,0.49299391,-0.00214700,-0.00089050,
 -0.00019530,0.00235963,0.00759228,0.00415741,0.02513666,-0.13473526,-0
 .02505326,0.00549619,-0.00008066,-0.00376555,0.00945192,-0.04988396,-0
 .01600742,-0.03116799,-0.06843922,-0.00884139,-0.05564831,-0.16757604,
 -0.01327589,0.01459426,0.02810521,0.00162146,0.03565915,0.39048478,-0.
 00125225,-0.00035162,-0.00079488,-0.01150667,0.01097285,0.00932201,0.0
 1944136,-0.02216330,-0.07705928,0.02688235,-0.02472755,-0.00077271,-0.
 00455506,-0.00325257,0.00381299,-0.00192541,-0.00958242,0.02384797,-0.
 00118294,-0.00874396,-0.06827987,0.00564770,0.00201877,0.01921427,-0.0
 3286638,0.05691893,0.08888976,-0.23860155,-0.03779772,-0.13485890,-0.0
 1667808,-0.00405287,-0.01883131,-0.00146381,-0.00323653,0.00315881,0.0
 0009714,0.00011763,0.00006462,-0.00042297,0.00060088,-0.00073628,-0.00
 067255,-0.00021227,0.00006668,0.00069041,-0.00007373,-0.00009709,-0.00
 044618,0.00015535,0.00004700,-0.00057935,-0.00023778,-0.00008580,0.250
 61435,-0.03705658,-0.04593040,-0.02527319,-0.00603513,0.00404507,-0.00
 314145,0.00004369,0.01336278,0.00118487,0.00001696,0.00001259,-0.00030
 952,0.00124111,-0.00081247,0.00093238,0.00107070,-0.00010049,-0.000159
 37,0.00046603,0.00182743,-0.00001430,-0.00059825,-0.00026129,0.0000746
 4,-0.00415395,-0.00096910,-0.00080733,0.04253941,0.03270591,-0.1410231
 5,-0.02591698,-0.16179882,0.01339718,0.00265055,0.01099362,0.00160908,
 0.00061801,-0.00071435,0.00015290,0.00003653,0.00030325,0.00002812,-0.
 00015511,0.00032702,0.00021314,0.00009485,-0.00001797,-0.00032339,-0.0
 0009515,0.00008504,0.00023851,-0.00004468,-0.00004379,0.00056411,-0.00
 000509,0.00018762,0.14674489,0.02676907,0.15969488,-0.06126743,-0.0042
 7494,0.03376110,-0.00014106,-0.00152650,0.02906303,0.00115370,0.001942
 81,0.00177676,-0.00020206,-0.00005659,-0.00065595,0.00014409,-0.000086
 39,0.00001353,0.00008136,0.00001236,-0.00001393,0.00004507,0.00010828,
 0.00005099,-0.00003066,-0.00001238,-0.00000243,-0.00021334,-0.00015142
 ,-0.00025601,0.00665904,0.00062565,-0.02131621,0.05743921,-0.00399680,
 -0.03931116,0.00817813,-0.00133629,0.00708425,0.00496325,0.00070374,-0
 .00849464,0.00039778,-0.00008394,0.00003879,0.00029803,-0.00054330,0.0
 0061270,-0.00030445,-0.00059282,-0.00007960,0.00017862,0.00006328,-0.0
 0075197,-0.00006719,0.00017401,0.00013043,-0.00001714,0.00171459,0.000
 54282,-0.00007916,0.00063930,0.00355484,-0.00388853,0.00624304,0.02602
 197,0.03875039,0.00912084,-0.34014371,-0.00039296,-0.00007454,-0.00916
 104,-0.00151494,-0.00027378,0.00126298,0.00078382,0.00022118,0.0004579
 7,-0.00016391,-0.00011875,0.00022543,-0.00001085,-0.00000870,-0.000011
 64,-0.00011735,0.00002952,0.00005863,0.00004401,-0.00002262,-0.0000164
 6,-0.00008193,-0.00006189,-0.00004882,0.00450654,0.00075173,-0.0098731
 9,-0.04351868,-0.00989056,0.35646140,-0.00060350,-0.00177608,0.0300081
 8,-0.06047936,-0.00443646,0.03714687,0.00299680,-0.00057744,-0.0262103
 0,-0.00377009,-0.00101601,-0.00236266,0.00108473,0.00147025,-0.0007095
 1,-0.00021010,0.00015105,0.00032049,0.00011891,-0.00042495,0.00009154,
 -0.00002267,0.00006819,-0.00006844,0.00230455,-0.00019811,0.00116212,0
 .00091132,0.00182581,-0.00031152,-0.00366953,-0.00296360,0.00171422,0.
 06115437,-0.00180948,0.00643534,0.00592936,-0.00503304,-0.04152095,0.0
 0952102,0.00139267,0.00182509,-0.00564216,-0.00112891,0.00093284,-0.00
 041334,0.00089975,0.00083828,-0.00071924,0.00002026,-0.00014724,0.0001
 8078,0.00075935,0.00044298,0.00002569,-0.00041457,0.00002880,-0.000005
 41,-0.00151875,0.00015276,0.00040068,0.00169783,-0.00741935,-0.0001031
 1,-0.00286348,0.01069866,0.00036022,0.00806665,0.02797053,-0.00059477,
 0.00010521,-0.00666237,0.03882797,0.00892934,-0.33347985,0.00472481,0.
 00025848,-0.01532992,-0.00265475,-0.00067343,-0.00061555,0.00053908,0.
 00088295,0.00046588,-0.00013089,-0.00007321,0.00009269,0.00036611,0.00
 015316,-0.00003495,-0.00027812,0.00003934,-0.00001305,-0.00033078,0.00
 037361,0.00113228,-0.00006394,-0.00002578,0.00090556,0.00123219,0.0001
 5671,0.00087191,-0.04139022,-0.00955417,0.35236963,-0.00037848,0.00021
 922,0.00002652,0.00020100,0.00010427,0.00044063,0.00658458,-0.00767162
 ,-0.01179605,0.00086371,0.00045171,0.00000910,-0.06227168,0.03593694,0
 .03718364,-0.01679099,0.03399768,0.01999992,-0.00710698,-0.00720965,0.
 00216465,-0.00127907,0.00375075,-0.00060922,0.00261582,-0.00353672,0.0
 0014334,-0.00007173,-0.00001889,0.00003055,-0.00000789,-0.00000411,0.0
 0003386,0.00006338,-0.00010874,0.00009253,0.07361364,-0.00047633,0.000
 01447,-0.00028500,0.00015056,-0.00112132,0.00112253,0.00601686,-0.0142
 4887,-0.01653907,0.00053185,0.00146195,-0.00006472,0.04617382,-0.19574
 010,-0.13468246,0.00249430,-0.00216420,-0.00158391,-0.00131246,-0.0008
 8522,-0.00037545,0.00096849,-0.00033755,-0.00000314,0.00079732,-0.0046
 1319,0.00011124,-0.00012968,0.00005332,0.00005919,-0.00000428,0.000004
 09,0.00002265,0.00002168,0.00003088,-0.00001734,-0.05230416,0.20798836
 ,0.00012496,-0.00012375,0.00008208,-0.00033175,0.00004420,-0.00018574,
 -0.00136275,0.00732914,0.00519063,-0.00044419,0.00002272,0.00093078,0.
 04521669,-0.14257638,-0.18505602,-0.00134241,0.00556984,0.00740095,-0.
 00102222,0.00229609,0.00044153,-0.00029536,0.00039460,-0.00023303,-0.0
 0099391,0.00302772,0.00064004,0.00003193,0.00001965,-0.00001538,-0.000
 04724,0.00001155,-0.00001545,0.00006229,-0.00003037,0.00016680,-0.0455
 9729,0.14489705,0.18633671,-0.00008601,0.00001892,-0.00000739,0.000828
 18,-0.00025362,0.00130362,0.00082864,-0.00397637,0.01625092,-0.0009303
 6,-0.00343471,0.00017051,-0.05101875,0.00797919,-0.02681807,-0.0218569
 9,0.02279660,-0.03401304,-0.00199159,-0.00935694,-0.00518244,-0.001810
 61,0.00278825,0.00167628,0.00263617,0.00038952,0.00035364,-0.00003604,
 0.00003345,-0.00000422,0.00000950,-0.00001710,-0.00003224,0.00012118,0
 .00004046,-0.00033920,0.00396470,-0.00292796,0.00600126,0.06934199,-0.
 00014027,0.00002614,-0.00015591,0.00096663,0.00112371,0.00102768,0.000
 67261,-0.00607934,0.02676845,-0.00159241,-0.00395585,0.00034294,0.0109
 4190,-0.08069296,0.07310809,0.00630369,-0.00040963,0.00685051,0.000180
 40,0.00020400,0.00106542,0.00029648,-0.00023083,-0.00039658,0.00023427
 ,0.00031009,-0.00071456,-0.00000983,-0.00006883,-0.00001957,0.00004384
 ,-0.00005120,-0.00005531,-0.00021097,-0.00026863,-0.00055486,-0.003606
 66,0.00955738,-0.02088207,-0.01407969,0.08053596,0.00007689,-0.0000380
 8,0.00029031,-0.00097724,-0.00035056,0.00078534,0.00165271,0.00041582,
 -0.00422699,0.00012830,0.00092976,0.00102583,-0.03417538,0.07656893,-0
 .30135083,-0.00523225,0.00180929,0.00525800,0.00007222,-0.00195283,0.0
 0010485,-0.00019964,0.00044524,-0.00032084,-0.00037642,0.00110665,-0.0
 0009140,0.00005285,-0.00000141,-0.00003349,-0.00008718,0.00006295,-0.0
 0006800,0.00054694,0.00005005,0.00013094,-0.00212217,0.00733842,-0.015
 68390,0.04064039,-0.08638423,0.31418018\\-0.00000552,0.00000172,0.0000
 0425,-0.00000148,0.00000015,-0.00001254,0.00001484,-0.00000139,0.00000
 462,-0.00000325,0.00000453,-0.00000019,-0.00001584,0.00000235,-0.00000
 233,0.00000703,0.00001937,0.00000279,0.00003388,-0.00002874,-0.0000016
 7,-0.00001656,0.00000033,0.00000587,-0.00002130,-0.00000558,0.00000895
 ,-0.00000207,0.00000760,-0.00000051,-0.00000171,0.00000888,-0.00000148
 ,0.00000020,-0.00000467,0.00000270,0.00000426,0.00000153,-0.00000534,0
 .00000755,-0.00000607,-0.00000512\\\@


 THE WISE MAN HAS THE POWER TO REASON AWAY
 WHAT A FOOL BELIEVES.
                     - DOOBIE BROTHERS
 Job cpu time:       0 days  0 hours 10 minutes 20.9 seconds.
 File lengths (MBytes):  RWF=    572 Int=      0 D2E=      0 Chk=     12 Scr=      8
 Normal termination of Gaussian 09 at Mon May 16 16:26:35 2022.
