 Entering Gaussian System, Link 0=g09
 Initial command:
 /gpfs/runtime/opt/gaussian/g09-D01/g09/l1.exe "/gpfs/data/yqi27/cgu13/CHEM1560Q/Gaussian/872-36-6/opt_inp/Gau-69195.inp" -scrdir="/gpfs/data/yqi27/cgu13/CHEM1560Q/Gaussian/872-36-6/opt_inp/"
 Entering Link 1 = /gpfs/runtime/opt/gaussian/g09-D01/g09/l1.exe PID=     69196.
  
 Copyright (c) 1988,1990,1992,1993,1995,1998,2003,2009,2013,
            Gaussian, Inc.  All Rights Reserved.
  
 This is part of the Gaussian(R) 09 program.  It is based on
 the Gaussian(R) 03 system (copyright 2003, Gaussian, Inc.),
 the Gaussian(R) 98 system (copyright 1998, Gaussian, Inc.),
 the Gaussian(R) 94 system (copyright 1995, Gaussian, Inc.),
 the Gaussian 92(TM) system (copyright 1992, Gaussian, Inc.),
 the Gaussian 90(TM) system (copyright 1990, Gaussian, Inc.),
 the Gaussian 88(TM) system (copyright 1988, Gaussian, Inc.),
 the Gaussian 86(TM) system (copyright 1986, Carnegie Mellon
 University), and the Gaussian 82(TM) system (copyright 1983,
 Carnegie Mellon University). Gaussian is a federally registered
 trademark of Gaussian, Inc.
  
 This software contains proprietary and confidential information,
 including trade secrets, belonging to Gaussian, Inc.
  
 This software is provided under written license and may be
 used, copied, transmitted, or stored only in accord with that
 written license.
  
 The following legend is applicable only to US Government
 contracts under FAR:
  
                    RESTRICTED RIGHTS LEGEND
  
 Use, reproduction and disclosure by the US Government is
 subject to restrictions as set forth in subparagraphs (a)
 and (c) of the Commercial Computer Software - Restricted
 Rights clause in FAR 52.227-19.
  
 Gaussian, Inc.
 340 Quinnipiac St., Bldg. 40, Wallingford CT 06492
  
  
 ---------------------------------------------------------------
 Warning -- This program may not be used in any manner that
 competes with the business of Gaussian, Inc. or will provide
 assistance to any competitor of Gaussian, Inc.  The licensee
 of this program is prohibited from giving any competitor of
 Gaussian, Inc. access to this program.  By using this program,
 the user acknowledges that Gaussian, Inc. is engaged in the
 business of creating and licensing software in the field of
 computational chemistry and represents and warrants to the
 licensee that it is not a competitor of Gaussian, Inc. and that
 it will not use this program in any manner prohibited above.
 ---------------------------------------------------------------
  

 Cite this work as:
 Gaussian 09, Revision D.01,
 M. J. Frisch, G. W. Trucks, H. B. Schlegel, G. E. Scuseria, 
 M. A. Robb, J. R. Cheeseman, G. Scalmani, V. Barone, B. Mennucci, 
 G. A. Petersson, H. Nakatsuji, M. Caricato, X. Li, H. P. Hratchian, 
 A. F. Izmaylov, J. Bloino, G. Zheng, J. L. Sonnenberg, M. Hada, 
 M. Ehara, K. Toyota, R. Fukuda, J. Hasegawa, M. Ishida, T. Nakajima, 
 Y. Honda, O. Kitao, H. Nakai, T. Vreven, J. A. Montgomery, Jr., 
 J. E. Peralta, F. Ogliaro, M. Bearpark, J. J. Heyd, E. Brothers, 
 K. N. Kudin, V. N. Staroverov, T. Keith, R. Kobayashi, J. Normand, 
 K. Raghavachari, A. Rendell, J. C. Burant, S. S. Iyengar, J. Tomasi, 
 M. Cossi, N. Rega, J. M. Millam, M. Klene, J. E. Knox, J. B. Cross, 
 V. Bakken, C. Adamo, J. Jaramillo, R. Gomperts, R. E. Stratmann, 
 O. Yazyev, A. J. Austin, R. Cammi, C. Pomelli, J. W. Ochterski, 
 R. L. Martin, K. Morokuma, V. G. Zakrzewski, G. A. Voth, 
 P. Salvador, J. J. Dannenberg, S. Dapprich, A. D. Daniels, 
 O. Farkas, J. B. Foresman, J. V. Ortiz, J. Cioslowski, 
 and D. J. Fox, Gaussian, Inc., Wallingford CT, 2013.
 
 ******************************************
 Gaussian 09:  EM64L-G09RevD.01 24-Apr-2013
                16-May-2022 
 ******************************************
 %Mem=16GB
 %NProcShared=8
 Will use up to    8 processors via shared memory.
 ----------------------------------------------------------------------
 #P M062X/6-31+G** EmpiricalDispersion=GD3 SCRF(SMD,solvent=DiMethylSul
 foxide) Opt Freq
 ----------------------------------------------------------------------
 1/14=-1,18=20,19=15,26=3,38=1/1,3;
 2/9=110,12=2,17=6,18=5,40=1/2;
 3/5=1,6=6,7=111,11=2,16=1,25=1,30=1,70=32201,71=1,72=21,74=-55,124=31/1,2,3;
 4//1;
 5/5=2,38=5,53=21/2;
 6/7=2,8=2,9=2,10=2,28=1/1;
 7//1,2,3,16;
 1/14=-1,18=20,19=15,26=3/3(2);
 2/9=110/2;
 99//99;
 2/9=110/2;
 3/5=1,6=6,7=111,11=2,16=1,25=1,30=1,70=32205,71=1,72=21,74=-55,124=31/1,2,3;
 4/5=5,16=3,69=1/1;
 5/5=2,38=5,53=21/2;
 7//1,2,3,16;
 1/14=-1,18=20,19=15,26=3/3(-5);
 2/9=110/2;
 6/7=2,8=2,9=2,10=2,19=2,28=1/1;
 99/9=1/99;
 Leave Link    1 at Mon May 16 18:04:33 2022, MaxMem=  2147483648 cpu:         0.9
 (Enter /gpfs/runtime/opt/gaussian/g09-D01/g09/l101.exe)
 --------
 872-36-6
 --------
 Symbolic Z-matrix:
 Charge =  0 Multiplicity = 2
 O                     1.72769   0.        0.00019 
 C                     0.51408   0.        0. 
 O                    -0.24914   1.08858   0.0001 
 C                    -1.57205   0.66401  -0.00016 
 C                    -1.57205  -0.66401   0.00002 
 O                    -0.24913  -1.08858  -0.00002 
 H                    -2.34163   1.41945  -0.00023 
 H                    -2.34163  -1.41945   0.00002 
 Li                    3.54267  -0.00001  -0.00041 
 
 NAtoms=      9 NQM=        9 NQMF=       0 NMMI=      0 NMMIF=      0
                NMic=       0 NMicF=      0.
                    Isotopes and Nuclear Properties:
 (Nuclear quadrupole moments (NQMom) in fm**2, nuclear magnetic moments (NMagM)
  in nuclear magnetons)

  Atom         1           2           3           4           5           6           7           8           9
 IAtWgt=          16          12          16          12          12          16           1           1           7
 AtmWgt=  15.9949146  12.0000000  15.9949146  12.0000000  12.0000000  15.9949146   1.0078250   1.0078250   7.0160045
 NucSpn=           0           0           0           0           0           0           1           1           3
 AtZEff=   0.0000000   0.0000000   0.0000000   0.0000000   0.0000000   0.0000000   0.0000000   0.0000000   0.0000000
 NQMom=    0.0000000   0.0000000   0.0000000   0.0000000   0.0000000   0.0000000   0.0000000   0.0000000  -4.0100000
 NMagM=    0.0000000   0.0000000   0.0000000   0.0000000   0.0000000   0.0000000   2.7928460   2.7928460   3.2564240
 AtZNuc=   8.0000000   6.0000000   8.0000000   6.0000000   6.0000000   8.0000000   1.0000000   1.0000000   3.0000000
 Leave Link  101 at Mon May 16 18:04:34 2022, MaxMem=  2147483648 cpu:         2.3
 (Enter /gpfs/runtime/opt/gaussian/g09-D01/g09/l103.exe)

 GradGradGradGradGradGradGradGradGradGradGradGradGradGradGradGradGradGrad
 Berny optimization.
 Initialization pass.
                           ----------------------------
                           !    Initial Parameters    !
                           ! (Angstroms and Degrees)  !
 --------------------------                            --------------------------
 ! Name  Definition              Value          Derivative Info.                !
 --------------------------------------------------------------------------------
 ! R1    R(1,2)                  1.2136         estimate D2E/DX2                !
 ! R2    R(1,9)                  1.815          estimate D2E/DX2                !
 ! R3    R(2,3)                  1.3295         estimate D2E/DX2                !
 ! R4    R(2,6)                  1.3295         estimate D2E/DX2                !
 ! R5    R(3,4)                  1.3894         estimate D2E/DX2                !
 ! R6    R(4,5)                  1.328          estimate D2E/DX2                !
 ! R7    R(4,7)                  1.0784         estimate D2E/DX2                !
 ! R8    R(5,6)                  1.3894         estimate D2E/DX2                !
 ! R9    R(5,8)                  1.0784         estimate D2E/DX2                !
 ! A1    A(1,2,3)              125.0346         estimate D2E/DX2                !
 ! A2    A(1,2,6)              125.0345         estimate D2E/DX2                !
 ! A3    A(3,2,6)              109.9309         estimate D2E/DX2                !
 ! A4    A(2,3,4)              107.2411         estimate D2E/DX2                !
 ! A5    A(3,4,5)              107.7935         estimate D2E/DX2                !
 ! A6    A(3,4,7)              117.7377         estimate D2E/DX2                !
 ! A7    A(5,4,7)              134.4688         estimate D2E/DX2                !
 ! A8    A(4,5,6)              107.7935         estimate D2E/DX2                !
 ! A9    A(4,5,8)              134.4688         estimate D2E/DX2                !
 ! A10   A(6,5,8)              117.7377         estimate D2E/DX2                !
 ! A11   A(2,6,5)              107.241          estimate D2E/DX2                !
 ! A12   L(2,1,9,6,-1)         179.9996         estimate D2E/DX2                !
 ! A13   L(2,1,9,6,-2)         179.9422         estimate D2E/DX2                !
 ! D1    D(1,2,3,4)           -179.9988         estimate D2E/DX2                !
 ! D2    D(6,2,3,4)             -0.0132         estimate D2E/DX2                !
 ! D3    D(1,2,6,5)            179.9875         estimate D2E/DX2                !
 ! D4    D(3,2,6,5)              0.0019         estimate D2E/DX2                !
 ! D5    D(2,3,4,5)              0.0197         estimate D2E/DX2                !
 ! D6    D(2,3,4,7)           -179.9936         estimate D2E/DX2                !
 ! D7    D(3,4,5,6)             -0.0185         estimate D2E/DX2                !
 ! D8    D(3,4,5,8)            179.9939         estimate D2E/DX2                !
 ! D9    D(7,4,5,6)            179.9981         estimate D2E/DX2                !
 ! D10   D(7,4,5,8)              0.0104         estimate D2E/DX2                !
 ! D11   D(4,5,6,2)              0.0106         estimate D2E/DX2                !
 ! D12   D(8,5,6,2)           -179.9993         estimate D2E/DX2                !
 --------------------------------------------------------------------------------
 Trust Radius=3.00D-01 FncErr=1.00D-07 GrdErr=1.00D-06
 Number of steps in this run=     44 maximum allowed number of steps=    100.
 GradGradGradGradGradGradGradGradGradGradGradGradGradGradGradGradGradGrad

 Leave Link  103 at Mon May 16 18:04:34 2022, MaxMem=  2147483648 cpu:         0.2
 (Enter /gpfs/runtime/opt/gaussian/g09-D01/g09/l202.exe)
                          Input orientation:                          
 ---------------------------------------------------------------------
 Center     Atomic      Atomic             Coordinates (Angstroms)
 Number     Number       Type             X           Y           Z
 ---------------------------------------------------------------------
      1          8           0        1.727685    0.000004    0.000194
      2          6           0        0.514077    0.000002    0.000004
      3          8           0       -0.249137    1.088582    0.000104
      4          6           0       -1.572047    0.664005   -0.000160
      5          6           0       -1.572045   -0.664009    0.000024
      6          8           0       -0.249133   -1.088582   -0.000021
      7          1           0       -2.341630    1.419446   -0.000230
      8          1           0       -2.341625   -1.419453    0.000023
      9          3           0        3.542674   -0.000006   -0.000405
 ---------------------------------------------------------------------
                    Distance matrix (angstroms):
                    1          2          3          4          5
     1  O    0.000000
     2  C    1.213608   0.000000
     3  O    2.256729   1.329474   0.000000
     4  C    3.365877   2.189249   1.389373   0.000000
     5  C    3.365878   2.189250   2.195828   1.328014   0.000000
     6  O    2.256730   1.329475   2.177164   2.195828   1.389373
     7  H    4.309773   3.189026   2.118490   1.078401   2.221046
     8  H    4.309773   3.189026   3.266305   2.221047   1.078401
     9  Li   1.814989   3.028597   3.944978   5.157643   5.157640
                    6          7          8          9
     6  O    0.000000
     7  H    3.266305   0.000000
     8  H    2.118490   2.838899   0.000000
     9  Li   3.944971   6.053088   6.053082   0.000000
 Stoichiometry    C3H2LiO3(2)
 Framework group  C1[X(C3H2LiO3)]
 Deg. of freedom    21
 Full point group                 C1      NOp   1
 Largest Abelian subgroup         C1      NOp   1
 Largest concise Abelian subgroup C1      NOp   1
                         Standard orientation:                         
 ---------------------------------------------------------------------
 Center     Atomic      Atomic             Coordinates (Angstroms)
 Number     Number       Type             X           Y           Z
 ---------------------------------------------------------------------
      1          8           0        1.727685   -0.000004   -0.000194
      2          6           0        0.514077   -0.000002   -0.000004
      3          8           0       -0.249137   -1.088582   -0.000104
      4          6           0       -1.572047   -0.664005    0.000160
      5          6           0       -1.572045    0.664009   -0.000024
      6          8           0       -0.249133    1.088582    0.000021
      7          1           0       -2.341630   -1.419446    0.000230
      8          1           0       -2.341625    1.419453   -0.000023
      9          3           0        3.542674    0.000006    0.000405
 ---------------------------------------------------------------------
 Rotational constants (GHZ):      9.6168829      2.3998371      1.9205701
 Leave Link  202 at Mon May 16 18:04:34 2022, MaxMem=  2147483648 cpu:         0.4
 (Enter /gpfs/runtime/opt/gaussian/g09-D01/g09/l301.exe)
 Standard basis: 6-31+G(d,p) (6D, 7F)
 Ernie: Thresh=  0.10000D-02 Tol=  0.10000D-05 Strict=F.
 There are   143 symmetry adapted cartesian basis functions of A   symmetry.
 There are   143 symmetry adapted basis functions of A   symmetry.
   143 basis functions,   238 primitive gaussians,   143 cartesian basis functions
    24 alpha electrons       23 beta electrons
       nuclear repulsion energy       251.5300098495 Hartrees.
 IExCor= 4336 DFT=T Ex+Corr=M062X ExCW=0 ScaHFX=  0.540000
 ScaDFX=  1.000000  1.000000  1.000000  1.000000 ScalE2=  1.000000  1.000000
 IRadAn=      0 IRanWt=     -1 IRanGd=            0 ICorTp=0 IEmpDi=131
 NAtoms=    9 NActive=    9 NUniq=    9 SFac= 1.00D+00 NAtFMM=   60 NAOKFM=F Big=F
 Integral buffers will be    131072 words long.
 Raffenetti 2 integral format.
 Two-electron integral symmetry is turned on.
 R6Disp:  Grimme-D3 Dispersion energy=       -0.0000852833 Hartrees.
 Nuclear repulsion after empirical dispersion term =      251.5299245662 Hartrees.
 ------------------------------------------------------------------------------
 Polarizable Continuum Model (PCM)
 =================================
 Model                : PCM (using non-symmetric T matrix).
 Atomic radii         : SMD-Coulomb.
 Polarization charges : Total charges.
 Charge compensation  : None.
 Solution method      : On-the-fly selection.
 Cavity type          : VdW (van der Waals Surface) (Alpha=1.000).
 Cavity algorithm     : GePol (No added spheres)
                        Default sphere list used, NSphG=    9.
                        Lebedev-Laikov grids with approx.  5.0 points / Ang**2.
                        Smoothing algorithm: Karplus/York (Gamma=1.0000).
                        Polarization charges: spherical gaussians, with
                                              point-specific exponents (IZeta= 3).
                        Self-potential: point-specific (ISelfS= 7).
                        Self-field    : sphere-specific E.n sum rule (ISelfD= 2).
 1st derivatives      : Analytical E(r).r(x)/FMM algorithm (CHGder, D1EAlg=3).
                        Cavity 1st derivative terms included.
 Solvent              : DiMethylSulfoxide, Eps=  46.826000 Eps(inf)=   2.007889
 ------------------------------------------------------------------------------
 Spheres list:
 ISph  on   Nord     Re0    Alpha      Xe            Ye            Ze
    1   O      1    2.2940  1.000      1.727685     -0.000004     -0.000194
    2   C      2    1.8500  1.000      0.514077     -0.000002     -0.000004
    3   O      3    2.2940  1.000     -0.249137     -1.088582     -0.000104
    4   C      4    1.8500  1.000     -1.572047     -0.664005      0.000160
    5   C      5    1.8500  1.000     -1.572045      0.664009     -0.000024
    6   O      6    2.2940  1.000     -0.249133      1.088582      0.000021
    7   H      7    1.2000  1.000     -2.341630     -1.419446      0.000230
    8   H      8    1.2000  1.000     -2.341625      1.419453     -0.000023
    9  Li      9    1.8200  1.000      3.542674      0.000006      0.000405
 ------------------------------------------------------------------------------
 GePol: Number of generator spheres                  =       9
 GePol: Total number of spheres                      =       9
 GePol: Number of exposed spheres                    =       9 (100.00%)
 GePol: Number of points                             =    1143
 GePol: Average weight of points                     =       0.12
 GePol: Minimum weight of points                     =   0.75D-05
 GePol: Maximum weight of points                     =    0.17992
 GePol: Number of points with low weight             =      54
 GePol: Fraction of low-weight points (<1% of avg)   =       4.72%
 GePol: Cavity surface area                          =    141.879 Ang**2
 GePol: Cavity volume                                =    134.474 Ang**3
 ------------------------------------------------------------------------------
 Atomic radii for non-electrostatic terms: SMD-CDS.
 ------------------------------------------------------------------------------
 PCM non-electrostatic energy =         0.0030493159 Hartrees.
 Nuclear repulsion after PCM non-electrostatic terms =      251.5329738822 Hartrees.
 Leave Link  301 at Mon May 16 18:04:34 2022, MaxMem=  2147483648 cpu:         1.2
 (Enter /gpfs/runtime/opt/gaussian/g09-D01/g09/l302.exe)
 NPDir=0 NMtPBC=     1 NCelOv=     1 NCel=       1 NClECP=     1 NCelD=      1
         NCelK=      1 NCelE2=     1 NClLst=     1 CellRange=     0.0.
 One-electron integrals computed using PRISM.
 NBasis=   143 RedAO= T EigKep=  7.99D-05  NBF=   143
 NBsUse=   143 1.00D-06 EigRej= -1.00D+00 NBFU=   143
 Precomputing XC quadrature grid using
 IXCGrd= 4 IRadAn=           0 IRanWt=          -1 IRanGd=           0 AccXCQ= 0.00D+00.
 Generated NRdTot=       0 NPtTot=           0 NUsed=           0 NTot=          32
 NSgBfM=   143   143   143   143   143 MxSgAt=     9 MxSgA2=     9.
 Leave Link  302 at Mon May 16 18:04:34 2022, MaxMem=  2147483648 cpu:         1.0
 (Enter /gpfs/runtime/opt/gaussian/g09-D01/g09/l303.exe)
 DipDrv:  MaxL=1.
 Leave Link  303 at Mon May 16 18:04:34 2022, MaxMem=  2147483648 cpu:         0.8
 (Enter /gpfs/runtime/opt/gaussian/g09-D01/g09/l401.exe)
 ExpMin= 7.40D-03 ExpMax= 5.48D+03 ExpMxC= 8.25D+02 IAcc=3 IRadAn=         5 AccDes= 0.00D+00
 Harris functional with IExCor= 1009 and IRadAn=       5 diagonalized for initial guess.
 HarFok:  IExCor= 1009 AccDes= 0.00D+00 IRadAn=         5 IDoV= 1 UseB2=F ITyADJ=14
 ICtDFT=  3500011 ScaDFX=  1.000000  1.000000  1.000000  1.000000
 FoFCou: FMM=F IPFlag=           0 FMFlag=      100000 FMFlg1=           0
         NFxFlg=           0 DoJE=T BraDBF=F KetDBF=T FulRan=T
         wScrn=  0.000000 ICntrl=     500 IOpCl=  0 I1Cent=   200000004 NGrid=           0
         NMat0=    1 NMatS0=      1 NMatT0=    0 NMatD0=    1 NMtDS0=    0 NMtDT0=    0
 Petite list used in FoFCou.
 Harris En= -348.344927072595    
 JPrj=0 DoOrth=F DoCkMO=F.
 Initial guess <Sx>= 0.0000 <Sy>= 0.0000 <Sz>= 0.5000 <S**2>= 0.7500 S= 0.5000
 Leave Link  401 at Mon May 16 18:04:35 2022, MaxMem=  2147483648 cpu:         3.3
 (Enter /gpfs/runtime/opt/gaussian/g09-D01/g09/l502.exe)
 UHF open shell SCF:
 Using DIIS extrapolation, IDIIS=  1040.
 Integral symmetry usage will be decided dynamically.
 Keep R1 and R2 ints in memory in canonical form, NReq=110529261.
 IVT=       82101 IEndB=       82101 NGot=  2147483648 MDV=  2041383636
 LenX=  2041383636 LenY=  2041362746
 Requested convergence on RMS density matrix=1.00D-08 within 128 cycles.
 Requested convergence on MAX density matrix=1.00D-06.
 Requested convergence on             energy=1.00D-06.
 No special actions if energy rises.
 FoFCou: FMM=F IPFlag=           0 FMFlag=           0 FMFlg1=           0
         NFxFlg=           0 DoJE=F BraDBF=F KetDBF=F FulRan=T
         wScrn=  0.000000 ICntrl=     600 IOpCl=  0 I1Cent=           0 NGrid=           0
         NMat0=    1 NMatS0=  10296 NMatT0=    0 NMatD0=    1 NMtDS0=    0 NMtDT0=    0
 Symmetry not used in FoFCou.

 Cycle   1  Pass 1  IDiag  1:
 Inv3:  Mode=1 IEnd=     3919347.
 Iteration    1 A*A^-1 deviation from unit magnitude is 5.55D-15 for    608.
 Iteration    1 A*A^-1 deviation from orthogonality  is 4.26D-15 for    806    586.
 Iteration    1 A^-1*A deviation from unit magnitude is 6.99D-15 for     26.
 Iteration    1 A^-1*A deviation from orthogonality  is 6.33D-13 for   1038    992.
 E= -348.323008611211    
 DIIS: error= 3.62D-02 at cycle   1 NSaved=   1.
 NSaved= 1 IEnMin= 1 EnMin= -348.323008611211     IErMin= 1 ErrMin= 3.62D-02
 ErrMax= 3.62D-02  0.00D+00 EMaxC= 1.00D-01 BMatC= 9.80D-01 BMatP= 9.80D-01
 IDIUse=3 WtCom= 6.38D-01 WtEn= 3.62D-01
 Coeff-Com:  0.100D+01
 Coeff-En:   0.100D+01
 Coeff:      0.100D+01
 Gap=    -0.051 Goal=   None    Shift=    0.000
 Gap=     0.396 Goal=   None    Shift=    0.000
 GapD=   -0.051 DampG=0.250 DampE=0.500 DampFc=0.2500 IDamp=-1.
 Damping current iteration by 2.50D-01
 RMSDP=1.04D-02 MaxDP=7.82D-01              OVMax= 1.00D+00

 Cycle   2  Pass 1  IDiag  1:
 E= -348.395053335114     Delta-E=       -0.072044723903 Rises=F Damp=T
 DIIS: error= 1.71D-02 at cycle   2 NSaved=   2.
 NSaved= 2 IEnMin= 2 EnMin= -348.395053335114     IErMin= 2 ErrMin= 1.71D-02
 ErrMax= 1.71D-02  0.00D+00 EMaxC= 1.00D-01 BMatC= 2.67D-01 BMatP= 9.80D-01
 IDIUse=3 WtCom= 8.29D-01 WtEn= 1.71D-01
 Coeff-Com: -0.848D+00 0.185D+01
 Coeff-En:   0.000D+00 0.100D+01
 Coeff:     -0.703D+00 0.170D+01
 Gap=     0.042 Goal=   None    Shift=    0.000
 Gap=     0.337 Goal=   None    Shift=    0.000
 RMSDP=6.28D-03 MaxDP=3.33D-01 DE=-7.20D-02 OVMax= 9.99D-01

 Cycle   3  Pass 1  IDiag  1:
 E= -348.517537892243     Delta-E=       -0.122484557129 Rises=F Damp=F
 DIIS: error= 6.14D-03 at cycle   3 NSaved=   3.
 NSaved= 3 IEnMin= 3 EnMin= -348.517537892243     IErMin= 3 ErrMin= 6.14D-03
 ErrMax= 6.14D-03  0.00D+00 EMaxC= 1.00D-01 BMatC= 2.22D-02 BMatP= 2.67D-01
 IDIUse=3 WtCom= 9.39D-01 WtEn= 6.14D-02
 Coeff-Com: -0.289D+00 0.552D+00 0.737D+00
 Coeff-En:   0.000D+00 0.000D+00 0.100D+01
 Coeff:     -0.272D+00 0.518D+00 0.753D+00
 Gap=     0.025 Goal=   None    Shift=    0.000
 Gap=     0.257 Goal=   None    Shift=    0.000
 RMSDP=2.90D-03 MaxDP=2.03D-01 DE=-1.22D-01 OVMax= 6.77D-02

 Cycle   4  Pass 1  IDiag  1:
 E= -348.522742950336     Delta-E=       -0.005205058093 Rises=F Damp=F
 DIIS: error= 4.78D-03 at cycle   4 NSaved=   4.
 NSaved= 4 IEnMin= 4 EnMin= -348.522742950336     IErMin= 4 ErrMin= 4.78D-03
 ErrMax= 4.78D-03  0.00D+00 EMaxC= 1.00D-01 BMatC= 1.00D-02 BMatP= 2.22D-02
 IDIUse=3 WtCom= 9.52D-01 WtEn= 4.78D-02
 Coeff-Com: -0.123D+00 0.183D+00 0.379D+00 0.562D+00
 Coeff-En:   0.000D+00 0.000D+00 0.598D-01 0.940D+00
 Coeff:     -0.117D+00 0.174D+00 0.363D+00 0.580D+00
 Gap=     0.045 Goal=   None    Shift=    0.000
 Gap=     0.251 Goal=   None    Shift=    0.000
 RMSDP=6.33D-04 MaxDP=3.08D-02 DE=-5.21D-03 OVMax= 1.30D-02

 Cycle   5  Pass 1  IDiag  1:
 E= -348.524600569137     Delta-E=       -0.001857618801 Rises=F Damp=F
 DIIS: error= 9.79D-04 at cycle   5 NSaved=   5.
 NSaved= 5 IEnMin= 5 EnMin= -348.524600569137     IErMin= 5 ErrMin= 9.79D-04
 ErrMax= 9.79D-04  0.00D+00 EMaxC= 1.00D-01 BMatC= 3.67D-04 BMatP= 1.00D-02
 IDIUse=3 WtCom= 9.90D-01 WtEn= 9.79D-03
 Coeff-Com: -0.130D-01 0.150D-01 0.179D-01 0.151D+00 0.829D+00
 Coeff-En:   0.000D+00 0.000D+00 0.000D+00 0.000D+00 0.100D+01
 Coeff:     -0.128D-01 0.148D-01 0.177D-01 0.149D+00 0.831D+00
 Gap=     0.050 Goal=   None    Shift=    0.000
 Gap=     0.244 Goal=   None    Shift=    0.000
 RMSDP=6.53D-04 MaxDP=4.71D-02 DE=-1.86D-03 OVMax= 1.45D-02

 Cycle   6  Pass 1  IDiag  1:
 E= -348.524744446855     Delta-E=       -0.000143877718 Rises=F Damp=F
 DIIS: error= 3.98D-04 at cycle   6 NSaved=   6.
 NSaved= 6 IEnMin= 6 EnMin= -348.524744446855     IErMin= 6 ErrMin= 3.98D-04
 ErrMax= 3.98D-04  0.00D+00 EMaxC= 1.00D-01 BMatC= 9.61D-05 BMatP= 3.67D-04
 IDIUse=3 WtCom= 9.96D-01 WtEn= 3.98D-03
 Coeff-Com:  0.128D-01-0.179D-01-0.392D-01-0.252D-01 0.375D+00 0.695D+00
 Coeff-En:   0.000D+00 0.000D+00 0.000D+00 0.000D+00 0.000D+00 0.100D+01
 Coeff:      0.127D-01-0.178D-01-0.390D-01-0.251D-01 0.373D+00 0.696D+00
 Gap=     0.052 Goal=   None    Shift=    0.000
 Gap=     0.242 Goal=   None    Shift=    0.000
 RMSDP=2.50D-04 MaxDP=1.97D-02 DE=-1.44D-04 OVMax= 6.77D-03

 Cycle   7  Pass 1  IDiag  1:
 E= -348.524776250609     Delta-E=       -0.000031803754 Rises=F Damp=F
 DIIS: error= 1.87D-04 at cycle   7 NSaved=   7.
 NSaved= 7 IEnMin= 7 EnMin= -348.524776250609     IErMin= 7 ErrMin= 1.87D-04
 ErrMax= 1.87D-04  0.00D+00 EMaxC= 1.00D-01 BMatC= 2.17D-05 BMatP= 9.61D-05
 IDIUse=3 WtCom= 9.98D-01 WtEn= 1.87D-03
 Coeff-Com:  0.879D-02-0.111D-01-0.193D-02-0.317D-01-0.392D-02 0.248D+00
 Coeff-Com:  0.792D+00
 Coeff-En:   0.000D+00 0.000D+00 0.000D+00 0.000D+00 0.000D+00 0.000D+00
 Coeff-En:   0.100D+01
 Coeff:      0.877D-02-0.111D-01-0.192D-02-0.316D-01-0.391D-02 0.247D+00
 Coeff:      0.793D+00
 Gap=     0.052 Goal=   None    Shift=    0.000
 Gap=     0.242 Goal=   None    Shift=    0.000
 RMSDP=1.28D-04 MaxDP=9.66D-03 DE=-3.18D-05 OVMax= 3.96D-03

 Cycle   8  Pass 1  IDiag  1:
 E= -348.524786320352     Delta-E=       -0.000010069742 Rises=F Damp=F
 DIIS: error= 7.35D-05 at cycle   8 NSaved=   8.
 NSaved= 8 IEnMin= 8 EnMin= -348.524786320352     IErMin= 8 ErrMin= 7.35D-05
 ErrMax= 7.35D-05  0.00D+00 EMaxC= 1.00D-01 BMatC= 3.76D-06 BMatP= 2.17D-05
 IDIUse=1 WtCom= 1.00D+00 WtEn= 0.00D+00
 Coeff-Com:  0.465D-03-0.775D-03 0.118D-01 0.441D-02-0.432D-01-0.122D+00
 Coeff-Com: -0.159D+00 0.131D+01
 Coeff:      0.465D-03-0.775D-03 0.118D-01 0.441D-02-0.432D-01-0.122D+00
 Coeff:     -0.159D+00 0.131D+01
 Gap=     0.052 Goal=   None    Shift=    0.000
 Gap=     0.243 Goal=   None    Shift=    0.000
 RMSDP=1.36D-04 MaxDP=8.00D-03 DE=-1.01D-05 OVMax= 4.68D-03

 Cycle   9  Pass 1  IDiag  1:
 E= -348.524791401894     Delta-E=       -0.000005081542 Rises=F Damp=F
 DIIS: error= 5.14D-05 at cycle   9 NSaved=   9.
 NSaved= 9 IEnMin= 9 EnMin= -348.524791401894     IErMin= 9 ErrMin= 5.14D-05
 ErrMax= 5.14D-05  0.00D+00 EMaxC= 1.00D-01 BMatC= 5.98D-07 BMatP= 3.76D-06
 IDIUse=1 WtCom= 1.00D+00 WtEn= 0.00D+00
 Coeff-Com: -0.262D-03 0.129D-03 0.362D-02 0.456D-02-0.582D-02-0.639D-01
 Coeff-Com: -0.157D+00 0.366D+00 0.852D+00
 Coeff:     -0.262D-03 0.129D-03 0.362D-02 0.456D-02-0.582D-02-0.639D-01
 Coeff:     -0.157D+00 0.366D+00 0.852D+00
 Gap=     0.052 Goal=   None    Shift=    0.000
 Gap=     0.243 Goal=   None    Shift=    0.000
 RMSDP=8.22D-05 MaxDP=2.90D-03 DE=-5.08D-06 OVMax= 3.27D-03

 Cycle  10  Pass 1  IDiag  1:
 E= -348.524793613186     Delta-E=       -0.000002211292 Rises=F Damp=F
 DIIS: error= 5.42D-05 at cycle  10 NSaved=  10.
 NSaved=10 IEnMin=10 EnMin= -348.524793613186     IErMin= 9 ErrMin= 5.14D-05
 ErrMax= 5.42D-05  0.00D+00 EMaxC= 1.00D-01 BMatC= 3.12D-07 BMatP= 5.98D-07
 IDIUse=1 WtCom= 1.00D+00 WtEn= 0.00D+00
 Coeff-Com:  0.615D-04-0.356D-04-0.112D-02-0.697D-03 0.579D-02 0.941D-02
 Coeff-Com:  0.514D-02-0.176D+00 0.139D+00 0.102D+01
 Coeff:      0.615D-04-0.356D-04-0.112D-02-0.697D-03 0.579D-02 0.941D-02
 Coeff:      0.514D-02-0.176D+00 0.139D+00 0.102D+01
 Gap=     0.052 Goal=   None    Shift=    0.000
 Gap=     0.243 Goal=   None    Shift=    0.000
 RMSDP=9.32D-05 MaxDP=3.40D-03 DE=-2.21D-06 OVMax= 4.16D-03

 Cycle  11  Pass 1  IDiag  1:
 E= -348.524796291285     Delta-E=       -0.000002678100 Rises=F Damp=F
 DIIS: error= 5.89D-05 at cycle  11 NSaved=  11.
 NSaved=11 IEnMin=11 EnMin= -348.524796291285     IErMin= 9 ErrMin= 5.14D-05
 ErrMax= 5.89D-05  0.00D+00 EMaxC= 1.00D-01 BMatC= 3.06D-07 BMatP= 3.12D-07
 IDIUse=1 WtCom= 1.00D+00 WtEn= 0.00D+00
 Coeff-Com:  0.465D-04 0.188D-04-0.220D-02-0.139D-02 0.928D-02 0.187D-01
 Coeff-Com:  0.166D-01-0.305D+00 0.189D+00 0.177D+01-0.692D+00
 Coeff:      0.465D-04 0.188D-04-0.220D-02-0.139D-02 0.928D-02 0.187D-01
 Coeff:      0.166D-01-0.305D+00 0.189D+00 0.177D+01-0.692D+00
 Gap=     0.053 Goal=   None    Shift=    0.000
 Gap=     0.243 Goal=   None    Shift=    0.000
 RMSDP=5.28D-05 MaxDP=1.84D-03 DE=-2.68D-06 OVMax= 2.65D-03

 Cycle  12  Pass 1  IDiag  1:
 E= -348.524794651836     Delta-E=        0.000001639450 Rises=F Damp=F
 DIIS: error= 5.56D-05 at cycle  12 NSaved=  12.
 NSaved=12 IEnMin=11 EnMin= -348.524796291285     IErMin= 9 ErrMin= 5.14D-05
 ErrMax= 5.56D-05  0.00D+00 EMaxC= 1.00D-01 BMatC= 2.78D-07 BMatP= 3.06D-07
 IDIUse=1 WtCom= 1.00D+00 WtEn= 0.00D+00
 Large coefficients: NSaved= 12 BigCof=   13.37 CofMax=   10.00 Det=-1.18D-09
 Inversion failed.  Reducing to 11 matrices.
 Large coefficients: NSaved= 11 BigCof=   12.74 CofMax=   10.00 Det=-1.23D-09
 Inversion failed.  Reducing to 10 matrices.
 Large coefficients: NSaved= 10 BigCof=   12.52 CofMax=   10.00 Det=-1.26D-09
 Inversion failed.  Reducing to  9 matrices.
 Large coefficients: NSaved=  9 BigCof=   12.52 CofMax=   10.00 Det=-1.26D-09
 Inversion failed.  Reducing to  8 matrices.
 Large coefficients: NSaved=  8 BigCof=   12.31 CofMax=   10.00 Det=-1.26D-09
 Inversion failed.  Reducing to  7 matrices.
 Large coefficients: NSaved=  7 BigCof=   12.29 CofMax=   10.00 Det=-1.27D-09
 Inversion failed.  Reducing to  6 matrices.
 Large coefficients: NSaved=  6 BigCof=   10.89 CofMax=   10.00 Det=-1.43D-09
 Inversion failed.  Reducing to  5 matrices.
 Large coefficients: NSaved=  5 BigCof=   10.56 CofMax=   10.00 Det=-1.48D-09
 Inversion failed.  Reducing to  4 matrices.
 Large coefficients: NSaved=  4 BigCof=   10.29 CofMax=   10.00 Det=-1.59D-09
 Inversion failed.  Reducing to  3 matrices.
 Coeff-Com: -0.423D+00-0.811D+01 0.953D+01
 Coeff:     -0.423D+00-0.811D+01 0.953D+01
 Gap=     0.054 Goal=   None    Shift=    0.000
 Gap=     0.242 Goal=   None    Shift=    0.000
 RMSDP=3.67D-04 MaxDP=1.25D-02 DE= 1.64D-06 OVMax= 1.95D-02

 Cycle  13  Pass 1  IDiag  1:
 E= -348.524786227259     Delta-E=        0.000008424576 Rises=F Damp=F
 DIIS: error= 3.06D-05 at cycle  13 NSaved=   4.
 NSaved= 4 IEnMin= 2 EnMin= -348.524796291285     IErMin= 4 ErrMin= 3.06D-05
 ErrMax= 3.06D-05  0.00D+00 EMaxC= 1.00D-01 BMatC= 1.44D-07 BMatP= 2.78D-07
 IDIUse=1 WtCom= 1.00D+00 WtEn= 0.00D+00
 Coeff-Com: -0.113D+01-0.495D+01 0.596D+01 0.112D+01
 Coeff:     -0.113D+01-0.495D+01 0.596D+01 0.112D+01
 Gap=     0.054 Goal=   None    Shift=    0.000
 Gap=     0.241 Goal=   None    Shift=    0.000
 RMSDP=2.49D-04 MaxDP=8.55D-03 DE= 8.42D-06 OVMax= 1.37D-02

 Cycle  14  Pass 1  IDiag  1:
 E= -348.524783995086     Delta-E=        0.000002232173 Rises=F Damp=F
 DIIS: error= 1.23D-05 at cycle  14 NSaved=   5.
 NSaved= 5 IEnMin= 2 EnMin= -348.524796291285     IErMin= 5 ErrMin= 1.23D-05
 ErrMax= 1.23D-05  0.00D+00 EMaxC= 1.00D-01 BMatC= 6.00D-08 BMatP= 1.44D-07
 IDIUse=1 WtCom= 1.00D+00 WtEn= 0.00D+00
 Coeff-Com: -0.739D+00-0.156D+01 0.213D+01 0.387D+00 0.788D+00
 Coeff:     -0.739D+00-0.156D+01 0.213D+01 0.387D+00 0.788D+00
 Gap=     0.054 Goal=   None    Shift=    0.000
 Gap=     0.241 Goal=   None    Shift=    0.000
 RMSDP=6.12D-05 MaxDP=1.94D-03 DE= 2.23D-06 OVMax= 3.78D-03

 Cycle  15  Pass 1  IDiag  1:
 E= -348.524783945423     Delta-E=        0.000000049664 Rises=F Damp=F
 DIIS: error= 6.79D-06 at cycle  15 NSaved=   6.
 NSaved= 6 IEnMin= 2 EnMin= -348.524796291285     IErMin= 6 ErrMin= 6.79D-06
 ErrMax= 6.79D-06  0.00D+00 EMaxC= 1.00D-01 BMatC= 1.92D-08 BMatP= 6.00D-08
 IDIUse=1 WtCom= 1.00D+00 WtEn= 0.00D+00
 Coeff-Com:  0.279D+00 0.118D+01-0.127D+01-0.673D+00 0.183D+00 0.131D+01
 Coeff:      0.279D+00 0.118D+01-0.127D+01-0.673D+00 0.183D+00 0.131D+01
 Gap=     0.054 Goal=   None    Shift=    0.000
 Gap=     0.242 Goal=   None    Shift=    0.000
 RMSDP=2.70D-05 MaxDP=1.00D-03 DE= 4.97D-08 OVMax= 2.13D-03

 Cycle  16  Pass 1  IDiag  1:
 E= -348.524784044805     Delta-E=       -0.000000099382 Rises=F Damp=F
 DIIS: error= 4.65D-06 at cycle  16 NSaved=   7.
 NSaved= 7 IEnMin= 2 EnMin= -348.524796291285     IErMin= 7 ErrMin= 4.65D-06
 ErrMax= 4.65D-06  0.00D+00 EMaxC= 1.00D-01 BMatC= 7.09D-09 BMatP= 1.92D-08
 IDIUse=1 WtCom= 1.00D+00 WtEn= 0.00D+00
 Coeff-Com:  0.210D+00 0.109D+01-0.137D+01-0.588D-01 0.177D+00 0.127D-01
 Coeff-Com:  0.940D+00
 Coeff:      0.210D+00 0.109D+01-0.137D+01-0.588D-01 0.177D+00 0.127D-01
 Coeff:      0.940D+00
 Gap=     0.054 Goal=   None    Shift=    0.000
 Gap=     0.242 Goal=   None    Shift=    0.000
 RMSDP=7.95D-06 MaxDP=2.92D-04 DE=-9.94D-08 OVMax= 6.23D-04

 Cycle  17  Pass 1  IDiag  1:
 E= -348.524784076100     Delta-E=       -0.000000031295 Rises=F Damp=F
 DIIS: error= 4.01D-06 at cycle  17 NSaved=   8.
 NSaved= 8 IEnMin= 2 EnMin= -348.524796291285     IErMin= 8 ErrMin= 4.01D-06
 ErrMax= 4.01D-06  0.00D+00 EMaxC= 1.00D-01 BMatC= 3.34D-09 BMatP= 7.09D-09
 IDIUse=1 WtCom= 1.00D+00 WtEn= 0.00D+00
 Coeff-Com:  0.286D-01 0.569D+00-0.686D+00 0.102D+00 0.986D-01-0.282D+00
 Coeff-Com:  0.235D+00 0.934D+00
 Coeff:      0.286D-01 0.569D+00-0.686D+00 0.102D+00 0.986D-01-0.282D+00
 Coeff:      0.235D+00 0.934D+00
 Gap=     0.054 Goal=   None    Shift=    0.000
 Gap=     0.242 Goal=   None    Shift=    0.000
 RMSDP=7.07D-06 MaxDP=2.37D-04 DE=-3.13D-08 OVMax= 4.28D-04

 Cycle  18  Pass 1  IDiag  1:
 E= -348.524784096399     Delta-E=       -0.000000020299 Rises=F Damp=F
 DIIS: error= 3.19D-06 at cycle  18 NSaved=   9.
 NSaved= 9 IEnMin= 2 EnMin= -348.524796291285     IErMin= 9 ErrMin= 3.19D-06
 ErrMax= 3.19D-06  0.00D+00 EMaxC= 1.00D-01 BMatC= 1.88D-09 BMatP= 3.34D-09
 IDIUse=1 WtCom= 1.00D+00 WtEn= 0.00D+00
 Coeff-Com: -0.193D+00-0.696D+00 0.898D+00 0.164D+00-0.118D+00-0.204D+00
 Coeff-Com: -0.960D+00 0.419D+00 0.169D+01
 Coeff:     -0.193D+00-0.696D+00 0.898D+00 0.164D+00-0.118D+00-0.204D+00
 Coeff:     -0.960D+00 0.419D+00 0.169D+01
 Gap=     0.054 Goal=   None    Shift=    0.000
 Gap=     0.242 Goal=   None    Shift=    0.000
 RMSDP=1.86D-05 MaxDP=5.37D-04 DE=-2.03D-08 OVMax= 9.20D-04

 Cycle  19  Pass 1  IDiag  1:
 E= -348.524784115584     Delta-E=       -0.000000019186 Rises=F Damp=F
 DIIS: error= 1.07D-06 at cycle  19 NSaved=  10.
 NSaved=10 IEnMin= 2 EnMin= -348.524796291285     IErMin=10 ErrMin= 1.07D-06
 ErrMax= 1.07D-06  0.00D+00 EMaxC= 1.00D-01 BMatC= 3.93D-10 BMatP= 1.88D-09
 IDIUse=1 WtCom= 1.00D+00 WtEn= 0.00D+00
 Coeff-Com:  0.253D-01-0.242D+00 0.258D+00-0.243D-01-0.836D-01 0.379D-01
 Coeff-Com: -0.298D-01-0.158D+00 0.170D+00 0.105D+01
 Coeff:      0.253D-01-0.242D+00 0.258D+00-0.243D-01-0.836D-01 0.379D-01
 Coeff:     -0.298D-01-0.158D+00 0.170D+00 0.105D+01
 Gap=     0.054 Goal=   None    Shift=    0.000
 Gap=     0.242 Goal=   None    Shift=    0.000
 RMSDP=4.09D-06 MaxDP=1.19D-04 DE=-1.92D-08 OVMax= 1.92D-04

 Cycle  20  Pass 1  IDiag  1:
 E= -348.524784117140     Delta-E=       -0.000000001555 Rises=F Damp=F
 DIIS: error= 4.49D-07 at cycle  20 NSaved=  11.
 NSaved=11 IEnMin= 2 EnMin= -348.524796291285     IErMin=11 ErrMin= 4.49D-07
 ErrMax= 4.49D-07  0.00D+00 EMaxC= 1.00D-01 BMatC= 7.04D-11 BMatP= 3.93D-10
 IDIUse=1 WtCom= 1.00D+00 WtEn= 0.00D+00
 Coeff-Com: -0.261D-01 0.506D-02 0.157D-01-0.384D-02 0.160D-01 0.127D-01
 Coeff-Com:  0.214D-01 0.399D-01-0.120D+00-0.436D+00 0.148D+01
 Coeff:     -0.261D-01 0.506D-02 0.157D-01-0.384D-02 0.160D-01 0.127D-01
 Coeff:      0.214D-01 0.399D-01-0.120D+00-0.436D+00 0.148D+01
 Gap=     0.054 Goal=   None    Shift=    0.000
 Gap=     0.242 Goal=   None    Shift=    0.000
 RMSDP=2.14D-06 MaxDP=8.65D-05 DE=-1.56D-09 OVMax= 6.61D-05

 Cycle  21  Pass 1  IDiag  1:
 E= -348.524784117359     Delta-E=       -0.000000000219 Rises=F Damp=F
 DIIS: error= 2.55D-07 at cycle  21 NSaved=  12.
 NSaved=12 IEnMin= 2 EnMin= -348.524796291285     IErMin=12 ErrMin= 2.55D-07
 ErrMax= 2.55D-07  0.00D+00 EMaxC= 1.00D-01 BMatC= 2.40D-11 BMatP= 7.04D-11
 IDIUse=1 WtCom= 1.00D+00 WtEn= 0.00D+00
 Coeff-Com: -0.503D-02 0.533D-01-0.526D-01-0.153D-01 0.221D-01 0.267D-01
 Coeff-Com:  0.227D-01 0.235D-01-0.893D-01-0.375D+00 0.487D+00 0.902D+00
 Coeff:     -0.503D-02 0.533D-01-0.526D-01-0.153D-01 0.221D-01 0.267D-01
 Coeff:      0.227D-01 0.235D-01-0.893D-01-0.375D+00 0.487D+00 0.902D+00
 Gap=     0.054 Goal=   None    Shift=    0.000
 Gap=     0.242 Goal=   None    Shift=    0.000
 RMSDP=1.99D-06 MaxDP=7.28D-05 DE=-2.19D-10 OVMax= 7.50D-05

 Cycle  22  Pass 1  IDiag  1:
 E= -348.524784117316     Delta-E=        0.000000000043 Rises=F Damp=F
 DIIS: error= 1.36D-07 at cycle  22 NSaved=  13.
 NSaved=13 IEnMin= 2 EnMin= -348.524796291285     IErMin=13 ErrMin= 1.36D-07
 ErrMax= 1.36D-07  0.00D+00 EMaxC= 1.00D-01 BMatC= 5.24D-12 BMatP= 2.40D-11
 IDIUse=1 WtCom= 1.00D+00 WtEn= 0.00D+00
 Coeff-Com: -0.358D-02-0.359D-01 0.344D-01 0.204D-01-0.551D-02-0.279D-01
 Coeff-Com: -0.937D-02-0.130D-01 0.473D-01 0.145D+00-0.297D+00-0.200D+00
 Coeff-Com:  0.135D+01
 Coeff:     -0.358D-02-0.359D-01 0.344D-01 0.204D-01-0.551D-02-0.279D-01
 Coeff:     -0.937D-02-0.130D-01 0.473D-01 0.145D+00-0.297D+00-0.200D+00
 Coeff:      0.135D+01
 Gap=     0.054 Goal=   None    Shift=    0.000
 Gap=     0.242 Goal=   None    Shift=    0.000
 RMSDP=8.17D-07 MaxDP=2.94D-05 DE= 4.26D-11 OVMax= 2.76D-05

 Cycle  23  Pass 1  IDiag  1:
 E= -348.524784117322     Delta-E=       -0.000000000006 Rises=F Damp=F
 DIIS: error= 8.38D-08 at cycle  23 NSaved=  14.
 NSaved=14 IEnMin= 2 EnMin= -348.524796291285     IErMin=14 ErrMin= 8.38D-08
 ErrMax= 8.38D-08  0.00D+00 EMaxC= 1.00D-01 BMatC= 5.36D-12 BMatP= 5.24D-12
 IDIUse=1 WtCom= 1.00D+00 WtEn= 0.00D+00
 Coeff-Com:  0.395D-02-0.174D-01 0.139D-01 0.715D-02-0.947D-02-0.128D-01
 Coeff-Com:  0.154D-01-0.209D-01 0.197D-01 0.156D+00-0.214D+00-0.498D+00
 Coeff-Com:  0.637D+00 0.919D+00
 Coeff:      0.395D-02-0.174D-01 0.139D-01 0.715D-02-0.947D-02-0.128D-01
 Coeff:      0.154D-01-0.209D-01 0.197D-01 0.156D+00-0.214D+00-0.498D+00
 Coeff:      0.637D+00 0.919D+00
 Gap=     0.054 Goal=   None    Shift=    0.000
 Gap=     0.242 Goal=   None    Shift=    0.000
 RMSDP=6.78D-07 MaxDP=2.57D-05 DE=-5.80D-12 OVMax= 2.53D-05

 Cycle  24  Pass 1  IDiag  1:
 E= -348.524784117318     Delta-E=        0.000000000004 Rises=F Damp=F
 DIIS: error= 1.61D-08 at cycle  24 NSaved=  15.
 NSaved=15 IEnMin= 2 EnMin= -348.524796291285     IErMin=15 ErrMin= 1.61D-08
 ErrMax= 1.61D-08  0.00D+00 EMaxC= 1.00D-01 BMatC= 2.86D-13 BMatP= 5.24D-12
 IDIUse=1 WtCom= 1.00D+00 WtEn= 0.00D+00
 Coeff-Com:  0.174D-02-0.696D-02 0.566D-02 0.232D-02-0.398D-02-0.456D-02
 Coeff-Com:  0.574D-02-0.658D-02 0.883D-02 0.542D-01-0.830D-01-0.199D+00
 Coeff-Com:  0.239D+00 0.336D+00 0.650D+00
 Coeff:      0.174D-02-0.696D-02 0.566D-02 0.232D-02-0.398D-02-0.456D-02
 Coeff:      0.574D-02-0.658D-02 0.883D-02 0.542D-01-0.830D-01-0.199D+00
 Coeff:      0.239D+00 0.336D+00 0.650D+00
 Gap=     0.054 Goal=   None    Shift=    0.000
 Gap=     0.242 Goal=   None    Shift=    0.000
 RMSDP=8.50D-08 MaxDP=3.19D-06 DE= 3.75D-12 OVMax= 3.19D-06

 Cycle  25  Pass 1  IDiag  1:
 E= -348.524784117318     Delta-E=        0.000000000000 Rises=F Damp=F
 DIIS: error= 8.13D-09 at cycle  25 NSaved=  16.
 NSaved=16 IEnMin= 2 EnMin= -348.524796291285     IErMin=16 ErrMin= 8.13D-09
 ErrMax= 8.13D-09  0.00D+00 EMaxC= 1.00D-01 BMatC= 5.88D-14 BMatP= 2.86D-13
 IDIUse=1 WtCom= 1.00D+00 WtEn= 0.00D+00
 Coeff-Com: -0.812D-03-0.265D-02 0.335D-02 0.662D-03 0.668D-04-0.728D-03
 Coeff-Com: -0.432D-02 0.335D-02 0.471D-02-0.105D-01 0.952D-03 0.327D-01
 Coeff-Com: -0.440D-02-0.128D+00 0.244D+00 0.862D+00
 Coeff:     -0.812D-03-0.265D-02 0.335D-02 0.662D-03 0.668D-04-0.728D-03
 Coeff:     -0.432D-02 0.335D-02 0.471D-02-0.105D-01 0.952D-03 0.327D-01
 Coeff:     -0.440D-02-0.128D+00 0.244D+00 0.862D+00
 Gap=     0.054 Goal=   None    Shift=    0.000
 Gap=     0.242 Goal=   None    Shift=    0.000
 RMSDP=3.67D-08 MaxDP=1.36D-06 DE= 3.41D-13 OVMax= 1.45D-06

 Cycle  26  Pass 1  IDiag  1:
 E= -348.524784117323     Delta-E=       -0.000000000005 Rises=F Damp=F
 DIIS: error= 5.95D-09 at cycle  26 NSaved=  17.
 NSaved=17 IEnMin= 2 EnMin= -348.524796291285     IErMin=17 ErrMin= 5.95D-09
 ErrMax= 5.95D-09  0.00D+00 EMaxC= 1.00D-01 BMatC= 2.46D-14 BMatP= 5.88D-14
 IDIUse=1 WtCom= 1.00D+00 WtEn= 0.00D+00
 Coeff-Com: -0.434D-03-0.145D-02 0.186D-02 0.212D-03-0.295D-04 0.160D-04
 Coeff-Com: -0.138D-02 0.315D-03 0.102D-02-0.173D-02 0.494D-02 0.142D-01
 Coeff-Com: -0.278D-02-0.828D-01-0.178D+00 0.111D+00 0.114D+01
 Coeff:     -0.434D-03-0.145D-02 0.186D-02 0.212D-03-0.295D-04 0.160D-04
 Coeff:     -0.138D-02 0.315D-03 0.102D-02-0.173D-02 0.494D-02 0.142D-01
 Coeff:     -0.278D-02-0.828D-01-0.178D+00 0.111D+00 0.114D+01
 Gap=     0.054 Goal=   None    Shift=    0.000
 Gap=     0.242 Goal=   None    Shift=    0.000
 RMSDP=3.62D-08 MaxDP=1.33D-06 DE=-4.77D-12 OVMax= 1.54D-06

 Cycle  27  Pass 1  IDiag  1:
 E= -348.524784117323     Delta-E=        0.000000000000 Rises=F Damp=F
 DIIS: error= 3.06D-09 at cycle  27 NSaved=  18.
 NSaved=18 IEnMin= 2 EnMin= -348.524796291285     IErMin=18 ErrMin= 3.06D-09
 ErrMax= 3.06D-09  0.00D+00 EMaxC= 1.00D-01 BMatC= 5.60D-15 BMatP= 2.46D-14
 IDIUse=1 WtCom= 1.00D+00 WtEn= 0.00D+00
 Large coefficients: NSaved= 18 BigCof=    0.00 CofMax=   10.00 Det=-5.55D-16
 Inversion failed.  Reducing to 17 matrices.
 Large coefficients: NSaved= 17 BigCof=    0.00 CofMax=   10.00 Det=-5.67D-16
 Inversion failed.  Reducing to 16 matrices.
 Large coefficients: NSaved= 16 BigCof=    0.00 CofMax=   10.00 Det=-5.73D-16
 Inversion failed.  Reducing to 15 matrices.
 Coeff-Com: -0.115D-03-0.886D-04 0.185D-03 0.373D-04 0.235D-03-0.166D-03
 Coeff-Com: -0.162D-02 0.263D-02-0.476D-03 0.470D-02-0.113D-01 0.244D-01
 Coeff-Com: -0.327D-02-0.444D+00 0.143D+01
 Coeff:     -0.115D-03-0.886D-04 0.185D-03 0.373D-04 0.235D-03-0.166D-03
 Coeff:     -0.162D-02 0.263D-02-0.476D-03 0.470D-02-0.113D-01 0.244D-01
 Coeff:     -0.327D-02-0.444D+00 0.143D+01
 Gap=     0.054 Goal=   None    Shift=    0.000
 Gap=     0.242 Goal=   None    Shift=    0.000
 RMSDP=1.30D-08 MaxDP=4.49D-07 DE=-4.55D-13 OVMax= 5.15D-07

 Cycle  28  Pass 1  IDiag  1:
 E= -348.524784117321     Delta-E=        0.000000000002 Rises=F Damp=F
 DIIS: error= 6.87D-10 at cycle  28 NSaved=  16.
 NSaved=16 IEnMin= 2 EnMin= -348.524796291285     IErMin=16 ErrMin= 6.87D-10
 ErrMax= 6.87D-10  0.00D+00 EMaxC= 1.00D-01 BMatC= 1.30D-16 BMatP= 5.60D-15
 IDIUse=1 WtCom= 1.00D+00 WtEn= 0.00D+00
 Large coefficients: NSaved= 16 BigCof=    0.00 CofMax=   10.00 Det=-1.39D-16
 Inversion failed.  Reducing to 15 matrices.
 Coeff-Com:  0.167D-04 0.100D-04-0.150D-04-0.191D-04 0.205D-04 0.646D-04
 Coeff-Com: -0.268D-03-0.516D-03-0.171D-04 0.520D-02 0.228D-01 0.905D-03
 Coeff-Com: -0.120D+00-0.135D+00 0.123D+01
 Coeff:      0.167D-04 0.100D-04-0.150D-04-0.191D-04 0.205D-04 0.646D-04
 Coeff:     -0.268D-03-0.516D-03-0.171D-04 0.520D-02 0.228D-01 0.905D-03
 Coeff:     -0.120D+00-0.135D+00 0.123D+01
 Gap=     0.054 Goal=   None    Shift=    0.000
 Gap=     0.242 Goal=   None    Shift=    0.000
 RMSDP=1.76D-09 MaxDP=6.13D-08 DE= 1.82D-12 OVMax= 3.89D-08

 Error on total polarization charges =  0.04484
 SCF Done:  E(UM062X) =  -348.524784117     A.U. after   28 cycles
            NFock= 28  Conv=0.18D-08     -V/T= 2.0072
 <Sx>= 0.0000 <Sy>= 0.0000 <Sz>= 0.5000 <S**2>= 0.7552 S= 0.5026
 <L.S>= 0.000000000000E+00
 KE= 3.460240964222D+02 PE=-1.321687500026D+03 EE= 3.756056456045D+02
 SMD-CDS (non-electrostatic) energy       (kcal/mol) =       1.91
 (included in total energy above)
 Annihilation of the first spin contaminant:
 S**2 before annihilation     0.7552,   after     0.7500
 Leave Link  502 at Mon May 16 18:04:55 2022, MaxMem=  2147483648 cpu:       129.9
 (Enter /gpfs/runtime/opt/gaussian/g09-D01/g09/l601.exe)
 Copying SCF densities to generalized density rwf, IOpCl= 1 IROHF=0.

 **********************************************************************

            Population analysis using the SCF density.

 **********************************************************************

 Orbital symmetries:
 Alpha Orbitals:
       Occupied  (A) (A) (A) (A) (A) (A) (A) (A) (A) (A) (A) (A)
                 (A) (A) (A) (A) (A) (A) (A) (A) (A) (A) (A) (A)
       Virtual   (A) (A) (A) (A) (A) (A) (A) (A) (A) (A) (A) (A)
                 (A) (A) (A) (A) (A) (A) (A) (A) (A) (A) (A) (A)
                 (A) (A) (A) (A) (A) (A) (A) (A) (A) (A) (A) (A)
                 (A) (A) (A) (A) (A) (A) (A) (A) (A) (A) (A) (A)
                 (A) (A) (A) (A) (A) (A) (A) (A) (A) (A) (A) (A)
                 (A) (A) (A) (A) (A) (A) (A) (A) (A) (A) (A) (A)
                 (A) (A) (A) (A) (A) (A) (A) (A) (A) (A) (A) (A)
                 (A) (A) (A) (A) (A) (A) (A) (A) (A) (A) (A) (A)
                 (A) (A) (A) (A) (A) (A) (A) (A) (A) (A) (A) (A)
                 (A) (A) (A) (A) (A) (A) (A) (A) (A) (A) (A)
 Beta  Orbitals:
       Occupied  (A) (A) (A) (A) (A) (A) (A) (A) (A) (A) (A) (A)
                 (A) (A) (A) (A) (A) (A) (A) (A) (A) (A) (A)
       Virtual   (A) (A) (A) (A) (A) (A) (A) (A) (A) (A) (A) (A)
                 (A) (A) (A) (A) (A) (A) (A) (A) (A) (A) (A) (A)
                 (A) (A) (A) (A) (A) (A) (A) (A) (A) (A) (A) (A)
                 (A) (A) (A) (A) (A) (A) (A) (A) (A) (A) (A) (A)
                 (A) (A) (A) (A) (A) (A) (A) (A) (A) (A) (A) (A)
                 (A) (A) (A) (A) (A) (A) (A) (A) (A) (A) (A) (A)
                 (A) (A) (A) (A) (A) (A) (A) (A) (A) (A) (A) (A)
                 (A) (A) (A) (A) (A) (A) (A) (A) (A) (A) (A) (A)
                 (A) (A) (A) (A) (A) (A) (A) (A) (A) (A) (A) (A)
                 (A) (A) (A) (A) (A) (A) (A) (A) (A) (A) (A) (A)
 The electronic state is 2-A.
 Alpha  occ. eigenvalues --  -19.70483 -19.70480 -19.65763 -10.74074 -10.54046
 Alpha  occ. eigenvalues --  -10.53945  -2.18177  -1.30798  -1.18000  -1.17656
 Alpha  occ. eigenvalues --   -0.84432  -0.73408  -0.70005  -0.62089  -0.60118
 Alpha  occ. eigenvalues --   -0.54869  -0.52439  -0.46253  -0.45627  -0.45249
 Alpha  occ. eigenvalues --   -0.44509  -0.40381  -0.29138  -0.06725
 Alpha virt. eigenvalues --   -0.01353   0.00472   0.00548   0.00558   0.02896
 Alpha virt. eigenvalues --    0.04855   0.05381   0.05568   0.06597   0.06648
 Alpha virt. eigenvalues --    0.06696   0.08527   0.09206   0.10946   0.10966
 Alpha virt. eigenvalues --    0.12385   0.14090   0.15089   0.15219   0.18277
 Alpha virt. eigenvalues --    0.19076   0.19313   0.19810   0.20370   0.21956
 Alpha virt. eigenvalues --    0.24592   0.26781   0.28118   0.28362   0.29611
 Alpha virt. eigenvalues --    0.30562   0.31589   0.33010   0.33376   0.34741
 Alpha virt. eigenvalues --    0.35121   0.36839   0.40625   0.41879   0.43224
 Alpha virt. eigenvalues --    0.43611   0.50857   0.51669   0.52052   0.55791
 Alpha virt. eigenvalues --    0.56316   0.63215   0.71370   0.72232   0.75511
 Alpha virt. eigenvalues --    0.75662   0.77104   0.81105   0.86678   0.93946
 Alpha virt. eigenvalues --    0.96473   0.97723   1.01475   1.05306   1.16606
 Alpha virt. eigenvalues --    1.19004   1.23072   1.23846   1.24563   1.26023
 Alpha virt. eigenvalues --    1.27253   1.32452   1.35004   1.38704   1.40087
 Alpha virt. eigenvalues --    1.40497   1.41955   1.45895   1.49425   1.50176
 Alpha virt. eigenvalues --    1.52788   1.53708   1.61948   1.62409   1.75478
 Alpha virt. eigenvalues --    1.82485   1.84236   1.88613   1.88869   1.97912
 Alpha virt. eigenvalues --    1.98911   2.00542   2.01300   2.11081   2.13263
 Alpha virt. eigenvalues --    2.16279   2.26579   2.27671   2.36836   2.39829
 Alpha virt. eigenvalues --    2.44982   2.48034   2.55259   2.63323   2.65383
 Alpha virt. eigenvalues --    2.72221   2.77029   2.77442   2.79583   2.85422
 Alpha virt. eigenvalues --    2.95278   3.01634   3.16340   3.17461   3.23108
 Alpha virt. eigenvalues --    3.25762   3.36924   3.80030   4.22709   4.39667
 Alpha virt. eigenvalues --    4.62385   4.66177   4.76735   4.77386
  Beta  occ. eigenvalues --  -19.70347 -19.70345 -19.65794 -10.74099 -10.53669
  Beta  occ. eigenvalues --  -10.53556  -2.18176  -1.30479  -1.17984  -1.17174
  Beta  occ. eigenvalues --   -0.83351  -0.72576  -0.69526  -0.61848  -0.59455
  Beta  occ. eigenvalues --   -0.54391  -0.51495  -0.46002  -0.44488  -0.43966
  Beta  occ. eigenvalues --   -0.43913  -0.40329  -0.25328
  Beta virt. eigenvalues --   -0.01162   0.00639   0.01010   0.01084   0.02963
  Beta virt. eigenvalues --    0.04673   0.04769   0.04809   0.04839   0.05603
  Beta virt. eigenvalues --    0.05688   0.05734   0.07847   0.08554   0.09174
  Beta virt. eigenvalues --    0.09383   0.10923   0.13572   0.14386   0.15192
  Beta virt. eigenvalues --    0.15433   0.18888   0.19021   0.19944   0.20000
  Beta virt. eigenvalues --    0.21817   0.24331   0.25616   0.26166   0.28317
  Beta virt. eigenvalues --    0.28482   0.29202   0.31334   0.32238   0.32983
  Beta virt. eigenvalues --    0.34743   0.34890   0.36439   0.39665   0.41106
  Beta virt. eigenvalues --    0.41512   0.42669   0.50937   0.51957   0.52136
  Beta virt. eigenvalues --    0.55448   0.56984   0.63077   0.71457   0.72052
  Beta virt. eigenvalues --    0.75425   0.77145   0.80054   0.81184   0.86134
  Beta virt. eigenvalues --    0.93952   0.96746   0.97923   1.02057   1.05346
  Beta virt. eigenvalues --    1.16508   1.18926   1.23458   1.24126   1.24533
  Beta virt. eigenvalues --    1.25983   1.28810   1.32797   1.34716   1.39519
  Beta virt. eigenvalues --    1.39972   1.40462   1.44162   1.45862   1.49979
  Beta virt. eigenvalues --    1.50535   1.52923   1.53450   1.62177   1.63487
  Beta virt. eigenvalues --    1.75593   1.82696   1.84237   1.88876   1.88960
  Beta virt. eigenvalues --    1.98116   2.00096   2.00876   2.02521   2.11636
  Beta virt. eigenvalues --    2.15001   2.16341   2.28357   2.28690   2.37902
  Beta virt. eigenvalues --    2.40764   2.46666   2.48366   2.57504   2.64133
  Beta virt. eigenvalues --    2.66404   2.73260   2.77479   2.77507   2.82415
  Beta virt. eigenvalues --    2.86296   2.95414   3.02491   3.17687   3.18244
  Beta virt. eigenvalues --    3.23654   3.26274   3.38348   3.82434   4.22986
  Beta virt. eigenvalues --    4.41097   4.62318   4.66018   4.78129   4.79868
          Condensed to atoms (all electrons):
               1          2          3          4          5          6
     1  O    8.127901   0.556911  -0.159353   0.014500   0.014500  -0.159352
     2  C    0.556911   4.356071   0.299079  -0.149421  -0.149416   0.299076
     3  O   -0.159353   0.299079   8.435166  -0.112669   0.097739  -0.151351
     4  C    0.014500  -0.149421  -0.112669   7.152127  -1.003693   0.097741
     5  C    0.014500  -0.149416   0.097739  -1.003693   7.152131  -0.112672
     6  O   -0.159352   0.299076  -0.151351   0.097741  -0.112672   8.435170
     7  H    0.000099   0.012618  -0.040372   0.449463  -0.080749   0.003437
     8  H    0.000099   0.012617   0.003437  -0.080749   0.449463  -0.040372
     9  Li   0.119781   0.001606  -0.007804   0.000229   0.000230  -0.007805
               7          8          9
     1  O    0.000099   0.000099   0.119781
     2  C    0.012618   0.012617   0.001606
     3  O   -0.040372   0.003437  -0.007804
     4  C    0.449463  -0.080749   0.000229
     5  C   -0.080749   0.449463   0.000230
     6  O    0.003437  -0.040372  -0.007805
     7  H    0.467404   0.000929  -0.000178
     8  H    0.000929   0.467404  -0.000178
     9  Li  -0.000178  -0.000178   2.051781
          Atomic-Atomic Spin Densities.
               1          2          3          4          5          6
     1  O   -0.025821   0.012772   0.002067  -0.000337  -0.000338   0.002068
     2  C    0.012772  -0.038820  -0.004212   0.003473   0.003477  -0.004214
     3  O    0.002067  -0.004212   0.150023  -0.305114   0.183200  -0.032183
     4  C   -0.000337   0.003473  -0.305114   2.313948  -1.638414   0.183202
     5  C   -0.000338   0.003477   0.183200  -1.638414   2.313954  -0.305118
     6  O    0.002068  -0.004214  -0.032183   0.183202  -0.305118   0.150028
     7  H   -0.000079  -0.003735   0.000002   0.022629  -0.016162  -0.000400
     8  H   -0.000079  -0.003735  -0.000400  -0.016162   0.022629   0.000002
     9  Li  -0.000537   0.000507  -0.000086   0.000033   0.000034  -0.000086
               7          8          9
     1  O   -0.000079  -0.000079  -0.000537
     2  C   -0.003735  -0.003735   0.000507
     3  O    0.000002  -0.000400  -0.000086
     4  C    0.022629  -0.016162   0.000033
     5  C   -0.016162   0.022629   0.000034
     6  O   -0.000400   0.000002  -0.000086
     7  H   -0.036458   0.000109   0.000038
     8  H    0.000109  -0.036458   0.000038
     9  Li   0.000038   0.000038  -0.000174
 Mulliken charges and spin densities:
               1          2
     1  O   -0.515087  -0.010284
     2  C    0.760858  -0.034488
     3  O   -0.363872  -0.006703
     4  C   -0.367529   0.563258
     5  C   -0.367533   0.563262
     6  O   -0.363872  -0.006701
     7  H    0.187349  -0.034056
     8  H    0.187349  -0.034056
     9  Li   0.842338  -0.000233
 Sum of Mulliken charges =   0.00000   1.00000
 Mulliken charges and spin densities with hydrogens summed into heavy atoms:
               1          2
     1  O   -0.515087  -0.010284
     2  C    0.760858  -0.034488
     3  O   -0.363872  -0.006703
     4  C   -0.180180   0.529202
     5  C   -0.180184   0.529206
     6  O   -0.363872  -0.006701
     9  Li   0.842338  -0.000233
 Electronic spatial extent (au):  <R**2>=            531.6515
 Charge=              0.0000 electrons
 Dipole moment (field-independent basis, Debye):
    X=             15.5546    Y=              0.0000    Z=              0.0022  Tot=             15.5546
 Quadrupole moment (field-independent basis, Debye-Ang):
   XX=              7.4912   YY=            -42.0986   ZZ=            -41.5953
   XY=              0.0001   XZ=              0.0078   YZ=             -0.0186
 Traceless Quadrupole moment (field-independent basis, Debye-Ang):
   XX=             32.8921   YY=            -16.6977   ZZ=            -16.1944
   XY=              0.0001   XZ=              0.0078   YZ=             -0.0186
 Octapole moment (field-independent basis, Debye-Ang**2):
  XXX=            228.6155  YYY=              0.0000  ZZZ=             -0.0012  XYY=             12.8653
  XXY=              0.0004  XXZ=              0.0266  XZZ=             23.1961  YZZ=              0.0000
  YYZ=             -0.0001  XYZ=              0.0300
 Hexadecapole moment (field-independent basis, Debye-Ang**3):
 XXXX=            265.7994 YYYY=           -193.0569 ZZZZ=            -72.7005 XXXY=              0.0016
 XXXZ=              0.0933 YYYX=              0.0002 YYYZ=             -0.1410 ZZZX=              0.0119
 ZZZY=             -0.1304 XXYY=           -105.2659 XXZZ=           -107.5909 YYZZ=            -54.6612
 XXYZ=             -0.0844 YYXZ=              0.0028 ZZXY=              0.0001
 N-N= 2.515329738822D+02 E-N=-1.321687500034D+03  KE= 3.460240964222D+02
                          Isotropic Fermi Contact Couplings
        Atom                 a.u.       MegaHertz       Gauss      10(-4) cm-1
     1  O(17)             -0.00439       2.66001       0.94916       0.88728
     2  C(13)             -0.00720      -8.09542      -2.88865      -2.70034
     3  O(17)              0.01181      -7.16138      -2.55536      -2.38878
     4  C(13)              0.05663      63.66723      22.71805      21.23710
     5  C(13)              0.05663      63.66740      22.71811      21.23716
     6  O(17)              0.01181      -7.16179      -2.55550      -2.38891
     7  H(1)              -0.00908     -40.60006     -14.48711     -13.54272
     8  H(1)              -0.00908     -40.60015     -14.48714     -13.54275
     9  Li(7)              0.00003       0.05992       0.02138       0.01999
 --------------------------------------------------------
       Center         ----  Spin Dipole Couplings  ----
                      3XX-RR        3YY-RR        3ZZ-RR
 --------------------------------------------------------
     1   Atom        0.033239      0.018879     -0.052119
     2   Atom        0.025884      0.015204     -0.041088
     3   Atom       -0.149392     -0.127927      0.277319
     4   Atom       -0.245339     -0.226093      0.471432
     5   Atom       -0.245339     -0.226094      0.471433
     6   Atom       -0.149397     -0.127932      0.277329
     7   Atom       -0.003521     -0.005006      0.008527
     8   Atom       -0.003521     -0.005006      0.008527
     9   Atom        0.001263     -0.000515     -0.000748
 --------------------------------------------------------
                        XY            XZ            YZ
 --------------------------------------------------------
     1   Atom        0.000000     -0.000005     -0.000020
     2   Atom        0.000000     -0.000002     -0.000002
     3   Atom        0.007514     -0.000083     -0.000039
     4   Atom        0.004850     -0.000116     -0.000087
     5   Atom       -0.004850      0.000212     -0.000081
     6   Atom       -0.007514      0.000107     -0.000001
     7   Atom        0.039396      0.000022      0.000031
     8   Atom       -0.039396     -0.000019      0.000035
     9   Atom        0.000000      0.000000      0.000000
 --------------------------------------------------------


 ---------------------------------------------------------------------------------
              Anisotropic Spin Dipole Couplings in Principal Axis System
 ---------------------------------------------------------------------------------

       Atom             a.u.   MegaHertz   Gauss  10(-4) cm-1        Axes

              Baa    -0.0521     3.771     1.346     1.258  0.0001  0.0003  1.0000
     1 O(17)  Bbb     0.0189    -1.366    -0.487    -0.456  0.0000  1.0000 -0.0003
              Bcc     0.0332    -2.405    -0.858    -0.802  1.0000  0.0000 -0.0001
 
              Baa    -0.0411    -5.514    -1.967    -1.839  0.0000  0.0000  1.0000
     2 C(13)  Bbb     0.0152     2.040     0.728     0.681  0.0000  1.0000  0.0000
              Bcc     0.0259     3.473     1.239     1.159  1.0000  0.0000  0.0000
 
              Baa    -0.1518    10.981     3.918     3.663  0.9537 -0.3007  0.0002
     3 O(17)  Bbb    -0.1256     9.085     3.242     3.031  0.3007  0.9537  0.0002
              Bcc     0.2773   -20.067    -7.160    -6.694 -0.0002 -0.0001  1.0000
 
              Baa    -0.2465   -33.077   -11.803   -11.033  0.9729 -0.2313  0.0001
     4 C(13)  Bbb    -0.2249   -30.185   -10.771   -10.069  0.2313  0.9729  0.0002
              Bcc     0.4714    63.262    22.573    21.102 -0.0002 -0.0001  1.0000
 
              Baa    -0.2465   -33.077   -11.803   -11.033  0.9729  0.2313 -0.0003
     5 C(13)  Bbb    -0.2249   -30.185   -10.771   -10.069 -0.2313  0.9729  0.0002
              Bcc     0.4714    63.262    22.573    21.102  0.0003 -0.0001  1.0000
 
              Baa    -0.1518    10.982     3.919     3.663  0.9537  0.3007 -0.0002
     6 O(17)  Bbb    -0.1256     9.086     3.242     3.031 -0.3007  0.9537  0.0001
              Bcc     0.2773   -20.067    -7.161    -6.694  0.0003  0.0000  1.0000
 
              Baa    -0.0437   -23.298    -8.313    -7.771 -0.7004  0.7137 -0.0001
     7 H(1)   Bbb     0.0085     4.549     1.623     1.518 -0.0011 -0.0009  1.0000
              Bcc     0.0351    18.749     6.690     6.254  0.7137  0.7004  0.0014
 
              Baa    -0.0437   -23.298    -8.313    -7.771  0.7004  0.7137 -0.0002
     8 H(1)   Bbb     0.0085     4.549     1.623     1.518  0.0012 -0.0008  1.0000
              Bcc     0.0351    18.749     6.690     6.254  0.7137 -0.7004 -0.0014
 
              Baa    -0.0007    -0.155    -0.055    -0.052  0.0000 -0.0006  1.0000
     9 Li(7)  Bbb    -0.0005    -0.107    -0.038    -0.036  0.0000  1.0000  0.0006
              Bcc     0.0013     0.262     0.093     0.087  1.0000  0.0000  0.0000
 

 ---------------------------------------------------------------------------------

 No NMR shielding tensors so no spin-rotation constants.
 Leave Link  601 at Mon May 16 18:04:55 2022, MaxMem=  2147483648 cpu:         1.0
 (Enter /gpfs/runtime/opt/gaussian/g09-D01/g09/l701.exe)
 Compute integral first derivatives.
 ... and contract with generalized density number  0.
 R6Disp: Adding Grimme-D3 dispersion energy 1st derivatives to the gradient.
 D1PCM: PCM CHGder 1st derivatives, ID1Alg=3 FixD1E=F DoIter=F DoCFld=F I1PDM=0.
 GePol: Maximum number of non-zero 1st derivatives   =     282
 Leave Link  701 at Mon May 16 18:04:55 2022, MaxMem=  2147483648 cpu:         2.8
 (Enter /gpfs/runtime/opt/gaussian/g09-D01/g09/l702.exe)
 L702 exits ... SP integral derivatives will be done elsewhere.
 Leave Link  702 at Mon May 16 18:04:55 2022, MaxMem=  2147483648 cpu:         0.1
 (Enter /gpfs/runtime/opt/gaussian/g09-D01/g09/l703.exe)
 Compute integral first derivatives, UseDBF=F ICtDFT=           0.
 Integral derivatives from FoFJK, PRISM(SPDF).
 Calling FoFJK, ICntrl=      2127 FMM=F ISym2X=0 I1Cent= 0 IOpClX= 1 NMat=1 NMatS=1 NMatT=0.
 FoFJK:  IHMeth= 1 ICntrl=    2127 DoSepK=F KAlg= 0 I1Cent=   0 FoldK=F
 IRaf=         0 NMat=   1 IRICut=       1 DoRegI=T DoRafI=F ISym2E= 0.
 FoFCou: FMM=F IPFlag=           0 FMFlag=      100000 FMFlg1=         800
         NFxFlg=           0 DoJE=F BraDBF=F KetDBF=F FulRan=T
         wScrn=  0.000000 ICntrl=    2127 IOpCl=  1 I1Cent=           0 NGrid=           0
         NMat0=    1 NMatS0=      1 NMatT0=    0 NMatD0=    1 NMtDS0=    0 NMtDT0=    0
 Symmetry not used in FoFCou.
 Leave Link  703 at Mon May 16 18:04:57 2022, MaxMem=  2147483648 cpu:         9.0
 (Enter /gpfs/runtime/opt/gaussian/g09-D01/g09/l716.exe)
 Dipole        = 6.11963735D+00 6.95243703D-06 8.50268595D-04
 ***** Axes restored to original set *****
 -------------------------------------------------------------------
 Center     Atomic                   Forces (Hartrees/Bohr)
 Number     Number              X              Y              Z
 -------------------------------------------------------------------
      1        8           0.025709497    0.000000083   -0.000010871
      2        6          -0.038879842   -0.000000435    0.000032180
      3        8           0.041553988   -0.001292508   -0.000045647
      4        6          -0.036708373    0.096769326    0.000053861
      5        6          -0.036707817   -0.096769505   -0.000059391
      6        8           0.041554035    0.001292946    0.000025424
      7        1           0.003866619   -0.000422462   -0.000004480
      8        1           0.003866529    0.000422523    0.000005955
      9        3          -0.004254635    0.000000032    0.000002969
 -------------------------------------------------------------------
 Cartesian Forces:  Max     0.096769505 RMS     0.031682109
 Leave Link  716 at Mon May 16 18:04:57 2022, MaxMem=  2147483648 cpu:         0.2
 (Enter /gpfs/runtime/opt/gaussian/g09-D01/g09/l103.exe)

 GradGradGradGradGradGradGradGradGradGradGradGradGradGradGradGradGradGrad
 Berny optimization.
 FormGI is forming the generalized inverse of G from B-inverse, IUseBI=4.
 Internal  Forces:  Max     0.093546465 RMS     0.019428771
 Search for a local minimum.
 Step number   1 out of a maximum of   44
 All quantities printed in internal units (Hartrees-Bohrs-Radians)
 RMS Force = .19429D-01 SwitMx=.10000D-02 MixMth= 1
 Mixed Optimization -- RFO/linear search
 Second derivative matrix not updated -- first step.
 ITU=  0
     Eigenvalues ---    0.01892   0.01892   0.02246   0.02417   0.02625
     Eigenvalues ---    0.02717   0.02848   0.13450   0.16000   0.16000
     Eigenvalues ---    0.22584   0.24746   0.25000   0.36188   0.36188
     Eigenvalues ---    0.43830   0.46413   0.52490   0.58256   0.59832
     Eigenvalues ---    0.98272
 RFO step:  Lambda=-2.32311160D-02 EMin= 1.89225119D-02
 Linear search not attempted -- first point.
 Iteration  1 RMS(Cart)=  0.03868535 RMS(Int)=  0.00060692
 Iteration  2 RMS(Cart)=  0.00041345 RMS(Int)=  0.00022784
 Iteration  3 RMS(Cart)=  0.00000024 RMS(Int)=  0.00022784
 ITry= 1 IFail=0 DXMaxC= 1.19D-01 DCOld= 1.00D+10 DXMaxT= 3.00D-01 DXLimC= 3.00D+00 Rises=F
 Variable       Old X    -DE/DX   Delta X   Delta X   Delta X     New X
                                 (Linear)    (Quad)   (Total)
    R1        2.29339   0.02145   0.00000   0.02133   0.02133   2.31471
    R2        3.42983  -0.00425   0.00000  -0.02697  -0.02697   3.40286
    R3        2.51234  -0.00377   0.00000  -0.01565  -0.01598   2.49636
    R4        2.51234  -0.00377   0.00000  -0.01565  -0.01598   2.49637
    R5        2.62553   0.03041   0.00000   0.06558   0.06569   2.69122
    R6        2.50958   0.09355   0.00000   0.16178   0.16217   2.67176
    R7        2.03788  -0.00306   0.00000  -0.00793  -0.00793   2.02995
    R8        2.62554   0.03041   0.00000   0.06558   0.06569   2.69122
    R9        2.03788  -0.00306   0.00000  -0.00793  -0.00793   2.02995
    A1        2.18226  -0.00956   0.00000  -0.01766  -0.01739   2.16487
    A2        2.18226  -0.00956   0.00000  -0.01766  -0.01739   2.16487
    A3        1.91866   0.01912   0.00000   0.03532   0.03479   1.95344
    A4        1.87171   0.00858   0.00000   0.01765   0.01740   1.88911
    A5        1.88135  -0.01815   0.00000  -0.03531  -0.03479   1.84656
    A6        2.05491   0.00662   0.00000   0.00427   0.00401   2.05892
    A7        2.34692   0.01153   0.00000   0.03104   0.03078   2.37770
    A8        1.88135  -0.01815   0.00000  -0.03531  -0.03479   1.84656
    A9        2.34692   0.01153   0.00000   0.03104   0.03078   2.37770
   A10        2.05491   0.00662   0.00000   0.00427   0.00401   2.05892
   A11        1.87171   0.00858   0.00000   0.01765   0.01740   1.88911
   A12        3.14159   0.00000   0.00000   0.00000   0.00000   3.14159
   A13        3.14058   0.00000   0.00000   0.00004   0.00004   3.14062
    D1       -3.14157   0.00000   0.00000  -0.00001   0.00000  -3.14157
    D2       -0.00023   0.00001   0.00000   0.00038   0.00040   0.00017
    D3        3.14137   0.00002   0.00000   0.00041   0.00042  -3.14139
    D4        0.00003   0.00000   0.00000   0.00001   0.00002   0.00005
    D5        0.00034  -0.00003   0.00000  -0.00066  -0.00066  -0.00032
    D6       -3.14148  -0.00001   0.00000  -0.00021  -0.00023   3.14148
    D7       -0.00032   0.00004   0.00000   0.00068   0.00066   0.00034
    D8        3.14149   0.00001   0.00000   0.00019   0.00018  -3.14152
    D9        3.14156   0.00001   0.00000   0.00012   0.00011  -3.14151
   D10        0.00018  -0.00002   0.00000  -0.00037  -0.00037  -0.00019
   D11        0.00019  -0.00002   0.00000  -0.00043  -0.00044  -0.00025
   D12       -3.14158   0.00000   0.00000  -0.00003  -0.00005   3.14155
         Item               Value     Threshold  Converged?
 Maximum Force            0.093546     0.000450     NO 
 RMS     Force            0.019429     0.000300     NO 
 Maximum Displacement     0.119439     0.001800     NO 
 RMS     Displacement     0.038517     0.001200     NO 
 Predicted change in Energy=-1.208911D-02
 Lowest energy point so far.  Saving SCF results.
 GradGradGradGradGradGradGradGradGradGradGradGradGradGradGradGradGradGrad

 Leave Link  103 at Mon May 16 18:04:57 2022, MaxMem=  2147483648 cpu:         0.3
 (Enter /gpfs/runtime/opt/gaussian/g09-D01/g09/l202.exe)
                          Input orientation:                          
 ---------------------------------------------------------------------
 Center     Atomic      Atomic             Coordinates (Angstroms)
 Number     Number       Type             X           Y           Z
 ---------------------------------------------------------------------
      1          8           0        1.737376    0.000004    0.000238
      2          6           0        0.512481    0.000001    0.000187
      3          8           0       -0.226951    1.094684   -0.000117
      4          6           0       -1.597277    0.706914   -0.000053
      5          6           0       -1.597275   -0.706918   -0.000115
      6          8           0       -0.226948   -1.094685    0.000248
      7          1           0       -2.340341    1.482650   -0.000165
      8          1           0       -2.340337   -1.482657   -0.000156
      9          3           0        3.538090   -0.000005   -0.000536
 ---------------------------------------------------------------------
                    Distance matrix (angstroms):
                    1          2          3          4          5
     1  O    0.000000
     2  C    1.224894   0.000000
     3  O    2.248757   1.321019   0.000000
     4  C    3.408758   2.225040   1.424134   0.000000
     5  C    3.408758   2.225041   2.263527   1.413832   0.000000
     6  O    2.248757   1.321020   2.189369   2.263528   1.424135
     7  H    4.338896   3.215096   2.148705   1.074203   2.312219
     8  H    4.338896   3.215097   3.333029   2.312219   1.074203
     9  Li   1.800715   3.025609   3.920954   5.183795   5.183792
                    6          7          8          9
     6  O    0.000000
     7  H    3.333030   0.000000
     8  H    2.148706   2.965307   0.000000
     9  Li   3.920948   6.062526   6.062521   0.000000
 Stoichiometry    C3H2LiO3(2)
 Framework group  C1[X(C3H2LiO3)]
 Deg. of freedom    21
 Full point group                 C1      NOp   1
 RotChk:  IX=0 Diff= 1.92D-07
 Largest Abelian subgroup         C1      NOp   1
 Largest concise Abelian subgroup C1      NOp   1
                         Standard orientation:                         
 ---------------------------------------------------------------------
 Center     Atomic      Atomic             Coordinates (Angstroms)
 Number     Number       Type             X           Y           Z
 ---------------------------------------------------------------------
      1          8           0        1.735057   -0.000004   -0.000214
      2          6           0        0.510163   -0.000002   -0.000163
      3          8           0       -0.229270   -1.094685    0.000141
      4          6           0       -1.599595   -0.706914    0.000077
      5          6           0       -1.599594    0.706917    0.000139
      6          8           0       -0.229267    1.094684   -0.000224
      7          1           0       -2.342660   -1.482651    0.000189
      8          1           0       -2.342656    1.482656    0.000180
      9          3           0        3.535771    0.000005    0.000560
 ---------------------------------------------------------------------
 Rotational constants (GHZ):      9.2291563      2.3792635      1.8916093
 Leave Link  202 at Mon May 16 18:04:57 2022, MaxMem=  2147483648 cpu:         0.4
 (Enter /gpfs/runtime/opt/gaussian/g09-D01/g09/l301.exe)
 Standard basis: 6-31+G(d,p) (6D, 7F)
 Ernie: Thresh=  0.10000D-02 Tol=  0.10000D-05 Strict=F.
 There are   143 symmetry adapted cartesian basis functions of A   symmetry.
 There are   143 symmetry adapted basis functions of A   symmetry.
   143 basis functions,   238 primitive gaussians,   143 cartesian basis functions
    24 alpha electrons       23 beta electrons
       nuclear repulsion energy       248.5199561365 Hartrees.
 IExCor= 4336 DFT=T Ex+Corr=M062X ExCW=0 ScaHFX=  0.540000
 ScaDFX=  1.000000  1.000000  1.000000  1.000000 ScalE2=  1.000000  1.000000
 IRadAn=      0 IRanWt=     -1 IRanGd=            0 ICorTp=0 IEmpDi=131
 NAtoms=    9 NActive=    9 NUniq=    9 SFac= 1.00D+00 NAtFMM=   60 NAOKFM=F Big=F
 Integral buffers will be    131072 words long.
 Raffenetti 2 integral format.
 Two-electron integral symmetry is turned on.
 R6Disp:  Grimme-D3 Dispersion energy=       -0.0000876314 Hartrees.
 Nuclear repulsion after empirical dispersion term =      248.5198685051 Hartrees.
 ------------------------------------------------------------------------------
 Polarizable Continuum Model (PCM)
 =================================
 Model                : PCM (using non-symmetric T matrix).
 Atomic radii         : SMD-Coulomb.
 Polarization charges : Total charges.
 Charge compensation  : None.
 Solution method      : On-the-fly selection.
 Cavity type          : VdW (van der Waals Surface) (Alpha=1.000).
 Cavity algorithm     : GePol (No added spheres)
                        Default sphere list used, NSphG=    9.
                        Lebedev-Laikov grids with approx.  5.0 points / Ang**2.
                        Smoothing algorithm: Karplus/York (Gamma=1.0000).
                        Polarization charges: spherical gaussians, with
                                              point-specific exponents (IZeta= 3).
                        Self-potential: point-specific (ISelfS= 7).
                        Self-field    : sphere-specific E.n sum rule (ISelfD= 2).
 1st derivatives      : Analytical E(r).r(x)/FMM algorithm (CHGder, D1EAlg=3).
                        Cavity 1st derivative terms included.
 Solvent              : DiMethylSulfoxide, Eps=  46.826000 Eps(inf)=   2.007889
 ------------------------------------------------------------------------------
 Spheres list:
 ISph  on   Nord     Re0    Alpha      Xe            Ye            Ze
    1   O      1    2.2940  1.000      1.735057     -0.000004     -0.000214
    2   C      2    1.8500  1.000      0.510163     -0.000002     -0.000163
    3   O      3    2.2940  1.000     -0.229270     -1.094685      0.000141
    4   C      4    1.8500  1.000     -1.599595     -0.706914      0.000077
    5   C      5    1.8500  1.000     -1.599594      0.706917      0.000139
    6   O      6    2.2940  1.000     -0.229267      1.094684     -0.000224
    7   H      7    1.2000  1.000     -2.342660     -1.482651      0.000189
    8   H      8    1.2000  1.000     -2.342656      1.482656      0.000180
    9  Li      9    1.8200  1.000      3.535771      0.000005      0.000560
 ------------------------------------------------------------------------------
 GePol: Number of generator spheres                  =       9
 GePol: Total number of spheres                      =       9
 GePol: Number of exposed spheres                    =       9 (100.00%)
 GePol: Number of points                             =    1139
 GePol: Average weight of points                     =       0.13
 GePol: Minimum weight of points                     =   0.67D-04
 GePol: Maximum weight of points                     =    0.17992
 GePol: Number of points with low weight             =      30
 GePol: Fraction of low-weight points (<1% of avg)   =       2.63%
 GePol: Cavity surface area                          =    142.467 Ang**2
 GePol: Cavity volume                                =    135.220 Ang**3
 ------------------------------------------------------------------------------
 Atomic radii for non-electrostatic terms: SMD-CDS.
 ------------------------------------------------------------------------------
 PCM non-electrostatic energy =         0.0033780494 Hartrees.
 Nuclear repulsion after PCM non-electrostatic terms =      248.5232465545 Hartrees.
 Leave Link  301 at Mon May 16 18:04:57 2022, MaxMem=  2147483648 cpu:         0.4
 (Enter /gpfs/runtime/opt/gaussian/g09-D01/g09/l302.exe)
 NPDir=0 NMtPBC=     1 NCelOv=     1 NCel=       1 NClECP=     1 NCelD=      1
         NCelK=      1 NCelE2=     1 NClLst=     1 CellRange=     0.0.
 One-electron integrals computed using PRISM.
 NBasis=   143 RedAO= T EigKep=  1.14D-04  NBF=   143
 NBsUse=   143 1.00D-06 EigRej= -1.00D+00 NBFU=   143
 Precomputing XC quadrature grid using
 IXCGrd= 4 IRadAn=           0 IRanWt=          -1 IRanGd=           0 AccXCQ= 0.00D+00.
 Generated NRdTot=       0 NPtTot=           0 NUsed=           0 NTot=          32
 NSgBfM=   143   143   143   143   143 MxSgAt=     9 MxSgA2=     9.
 Leave Link  302 at Mon May 16 18:04:57 2022, MaxMem=  2147483648 cpu:         0.8
 (Enter /gpfs/runtime/opt/gaussian/g09-D01/g09/l303.exe)
 DipDrv:  MaxL=1.
 Leave Link  303 at Mon May 16 18:04:57 2022, MaxMem=  2147483648 cpu:         0.2
 (Enter /gpfs/runtime/opt/gaussian/g09-D01/g09/l401.exe)
 Initial guess from the checkpoint file:  "/gpfs/data/yqi27/cgu13/CHEM1560Q/Gaussian/872-36-6/opt_inp/Gau-69196.chk"
 B after Tr=     0.000000    0.000000    0.000000
         Rot=    1.000000    0.000050   -0.000001    0.000000 Ang=   0.01 deg.
 Guess basis will be translated and rotated to current coordinates.
 JPrj=2 DoOrth=T DoCkMO=T.
 Initial guess <Sx>= 0.0000 <Sy>= 0.0000 <Sz>= 0.5000 <S**2>= 0.7553 S= 0.5026
 Generating alternative initial guess.
 ExpMin= 7.40D-03 ExpMax= 5.48D+03 ExpMxC= 8.25D+02 IAcc=3 IRadAn=         5 AccDes= 0.00D+00
 Harris functional with IExCor= 1009 and IRadAn=       5 diagonalized for initial guess.
 HarFok:  IExCor= 1009 AccDes= 0.00D+00 IRadAn=         5 IDoV= 1 UseB2=F ITyADJ=14
 ICtDFT=  3500011 ScaDFX=  1.000000  1.000000  1.000000  1.000000
 FoFCou: FMM=F IPFlag=           0 FMFlag=      100000 FMFlg1=           0
         NFxFlg=           0 DoJE=T BraDBF=F KetDBF=T FulRan=T
         wScrn=  0.000000 ICntrl=     500 IOpCl=  0 I1Cent=   200000004 NGrid=           0
         NMat0=    1 NMatS0=      1 NMatT0=    0 NMatD0=    1 NMtDS0=    0 NMtDT0=    0
 Petite list used in FoFCou.
 Harris En= -348.343644888248    
 Leave Link  401 at Mon May 16 18:04:58 2022, MaxMem=  2147483648 cpu:         3.2
 (Enter /gpfs/runtime/opt/gaussian/g09-D01/g09/l502.exe)
 UHF open shell SCF:
 Using DIIS extrapolation, IDIIS=  1040.
 Integral symmetry usage will be decided dynamically.
 Keep R1 and R2 ints in memory in canonical form, NReq=110519289.
 IVT=       82101 IEndB=       82101 NGot=  2147483648 MDV=  2041383636
 LenX=  2041383636 LenY=  2041362746
 Requested convergence on RMS density matrix=1.00D-08 within 128 cycles.
 Requested convergence on MAX density matrix=1.00D-06.
 Requested convergence on             energy=1.00D-06.
 No special actions if energy rises.
 FoFCou: FMM=F IPFlag=           0 FMFlag=           0 FMFlg1=           0
         NFxFlg=           0 DoJE=F BraDBF=F KetDBF=F FulRan=T
         wScrn=  0.000000 ICntrl=     600 IOpCl=  0 I1Cent=           0 NGrid=           0
         NMat0=    1 NMatS0=  10296 NMatT0=    0 NMatD0=    1 NMtDS0=    0 NMtDT0=    0
 Symmetry not used in FoFCou.

 Cycle   1  Pass 1  IDiag  1:
 Inv3:  Mode=1 IEnd=     3891963.
 Iteration    1 A*A^-1 deviation from unit magnitude is 6.44D-15 for      1.
 Iteration    1 A*A^-1 deviation from orthogonality  is 4.23D-15 for   1097    651.
 Iteration    1 A^-1*A deviation from unit magnitude is 6.66D-15 for    325.
 Iteration    1 A^-1*A deviation from orthogonality  is 2.28D-14 for   1101   1097.
 E= -348.532712309692    
 DIIS: error= 3.42D-03 at cycle   1 NSaved=   1.
 NSaved= 1 IEnMin= 1 EnMin= -348.532712309692     IErMin= 1 ErrMin= 3.42D-03
 ErrMax= 3.42D-03  0.00D+00 EMaxC= 1.00D-01 BMatC= 1.09D-02 BMatP= 1.09D-02
 IDIUse=3 WtCom= 9.66D-01 WtEn= 3.42D-02
 Coeff-Com:  0.100D+01
 Coeff-En:   0.100D+01
 Coeff:      0.100D+01
 Gap=     0.385 Goal=   None    Shift=    0.000
 Gap=     0.544 Goal=   None    Shift=    0.000
 GapD=    0.385 DampG=1.000 DampE=1.000 DampFc=1.0000 IDamp=-1.
 RMSDP=1.70D-03 MaxDP=1.24D-01              OVMax= 4.33D-02

 Cycle   2  Pass 1  IDiag  1:
 E= -348.537446036906     Delta-E=       -0.004733727213 Rises=F Damp=F
 DIIS: error= 1.30D-03 at cycle   2 NSaved=   2.
 NSaved= 2 IEnMin= 2 EnMin= -348.537446036906     IErMin= 2 ErrMin= 1.30D-03
 ErrMax= 1.30D-03  0.00D+00 EMaxC= 1.00D-01 BMatC= 8.32D-04 BMatP= 1.09D-02
 IDIUse=3 WtCom= 9.87D-01 WtEn= 1.30D-02
 Coeff-Com:  0.135D-01 0.986D+00
[...]
     30  0.231320D-02 -0.315001D-02  0.108121D-01  0.447191D-02 -0.458008D-02
     31  0.231110D-02  0.447686D-02 -0.168662D-01 -0.314872D-02 -0.207849D-03
     32  0.718566D-02  0.412099D-02  0.911889D-02  0.411755D-02 -0.155294D-04
     33  0.107110D-01  0.120201D-02  0.308236D-02  0.297320D-02 -0.618605D-02
     34 -0.580021D-02 -0.397431D-03 -0.104115D-02 -0.692871D-02 -0.250541D-02
               11            12            13            14            15 
     11  0.172813D+00
     12 -0.655373D-01  0.131075D+00
     13  0.414366D-01 -0.773511D-01  0.124365D+00
     14 -0.143763D-02  0.119171D-01 -0.809176D-01  0.116621D+00
     15  0.294684D-02 -0.148568D-01  0.417404D-01 -0.545747D-01  0.587680D-01
     16 -0.368459D-02  0.699525D-02  0.200468D-01 -0.363712D-01 -0.119665D-01
     17 -0.104790D-01  0.119214D-01  0.227595D-01 -0.684779D-01  0.227317D-01
     18 -0.331151D-02  0.700061D-02 -0.187983D-01  0.303821D-01 -0.626700D-02
     19  0.119109D-01 -0.148600D-01  0.558226D-02  0.227309D-01 -0.148259D-01
     20  0.359109D-01 -0.773480D-01  0.102501D-01  0.227633D-01  0.558154D-02
     21  0.112288D-01  0.184022D-05  0.178670D-02 -0.188363D-03 -0.424632D-03
     22  0.113217D-03  0.486498D-05  0.732754D-04 -0.133057D-03  0.141784D-03
     23  0.234569D-02 -0.147913D-02  0.454731D-02 -0.353145D-02  0.596882D-04
     24 -0.269735D-03 -0.148717D-02  0.940360D-02 -0.152918D-01  0.919410D-02
     25 -0.847481D-03 -0.148749D-02  0.407159D-02 -0.532457D-02  0.255667D-02
     26  0.175213D-02 -0.147945D-02 -0.784947D-03  0.643506D-02 -0.657711D-02
     27 -0.617386D-02  0.110001D-01 -0.821318D-02 -0.104435D-02 -0.254610D-03
     28 -0.250169D-02  0.356377D-02 -0.409323D-02 -0.124988D-02  0.148840D-01
     29 -0.477439D-02  0.954679D-02 -0.130400D-01  0.625372D-02 -0.887035D-02
     30 -0.209010D-03  0.478872D-02  0.206675D-02 -0.329736D-02 -0.130013D-01
     31 -0.457718D-02  0.478540D-02 -0.149341D-01  0.114573D-01  0.140825D-01
     32 -0.118067D-04  0.273360D-04  0.172571D-03  0.190621D-02  0.995155D-02
     33 -0.482620D-02  0.110108D-01 -0.104682D-01  0.126684D-01 -0.292950D-02
     34 -0.106231D-02  0.356736D-02 -0.618291D-02  0.746640D-02 -0.138710D-02
               16            17            18            19            20 
     16  0.565263D-01
     17  0.303769D-01  0.116617D+00
     18 -0.972073D-02 -0.363744D-01  0.565284D-01
     19 -0.626539D-02 -0.545718D-01 -0.119690D-01  0.587684D-01
     20 -0.187943D-01 -0.809143D-01  0.200466D-01  0.417394D-01  0.124356D+00
     21  0.555238D-03  0.189199D-03 -0.555710D-03  0.424413D-03 -0.178928D-02
     22  0.495603D-03  0.137914D-03 -0.495512D-03 -0.142589D-03 -0.814336D-04
     23  0.363211D-02 -0.532850D-02 -0.470216D-02  0.256059D-02  0.406945D-02
     24 -0.598759D-02  0.642927D-02  0.491711D-02 -0.657469D-02 -0.773125D-03
     25 -0.470587D-02 -0.354431D-02  0.363540D-02  0.616044D-04  0.456136D-02
     26  0.491372D-02 -0.153014D-01 -0.598374D-02  0.919625D-02  0.940418D-02
     27  0.125560D-01  0.126615D-01 -0.310626D-02 -0.292629D-02 -0.104617D-01
     28 -0.249440D-01  0.746580D-02 -0.777963D-02 -0.138585D-02 -0.618297D-02
     29 -0.522024D-02  0.626018D-02 -0.522211D-02 -0.887280D-02 -0.130467D-01
     30  0.680191D-02  0.114584D-01 -0.153279D-01  0.140819D-01 -0.149371D-01
     31 -0.153248D-01 -0.329619D-02  0.680350D-02 -0.130026D-01  0.206651D-02
     32 -0.330264D-02  0.190199D-02 -0.330232D-02  0.995207D-02  0.176113D-03
     33 -0.310698D-02 -0.104932D-02  0.125602D-01 -0.253388D-03 -0.821522D-02
     34 -0.777800D-02 -0.124898D-02 -0.249385D-01  0.148843D-01 -0.409746D-02
               21            22            23            24            25 
     21  0.133069D-01
     22 -0.587789D-04  0.444430D-02
     23  0.271314D-03  0.374075D-02  0.344716D-01
     24 -0.336245D-03 -0.977044D-03 -0.128338D-01  0.224364D-01
     25 -0.270669D-03 -0.374363D-02 -0.304695D-01  0.168391D-01  0.344807D-01
     26  0.335617D-03  0.974081D-03  0.168350D-01 -0.184304D-01 -0.128270D-01
     27  0.249180D-04  0.589607D-03  0.538938D-02 -0.132376D-01 -0.114366D-01
     28 -0.267287D-03 -0.172298D-04  0.327262D-02 -0.125787D-02 -0.364646D-02
     29  0.000000D+00 -0.251287D-05  0.213670D-02  0.214126D-02  0.214721D-02
     30  0.366423D-03 -0.413576D-03 -0.238083D-02  0.232155D-02  0.154997D-02
     31 -0.366499D-03  0.411843D-03  0.154589D-02 -0.315085D-02 -0.237455D-02
     32  0.000000D+00  0.000000D+00 -0.297164D-02 -0.297056D-02 -0.297179D-02
     33 -0.239606D-04 -0.582655D-03 -0.114247D-01  0.719041D-02  0.537811D-02
     34  0.268381D-03  0.213092D-04 -0.363872D-02  0.882640D-03  0.326478D-02
               26            27            28            29            30 
     26  0.224378D-01
     27  0.719015D-02  0.154956D-01
     28  0.884039D-03  0.933127D-03  0.232065D-01
     29  0.214265D-02 -0.531739D-02  0.236745D-02  0.119513D-01
     30 -0.315259D-02 -0.860839D-04  0.182942D-02  0.188275D-02  0.208256D-01
     31  0.232237D-02  0.202288D-02  0.440401D-02  0.188195D-02 -0.141257D-01
     32 -0.297287D-02  0.725418D-02  0.386598D-02 -0.818663D-02  0.481721D-02
     33 -0.132368D-01  0.103531D-02 -0.188001D-02 -0.531807D-02  0.202298D-02
     34 -0.125660D-02 -0.187827D-02  0.349889D-02  0.236672D-02  0.440696D-02
               31            32            33            34 
     31  0.208279D-01
     32  0.482029D-02  0.178241D-01
     33 -0.850449D-04  0.725600D-02  0.154996D-01
     34  0.182917D-02  0.386941D-02  0.934199D-03  0.231999D-01
 Leave Link  716 at Mon May 16 18:10:47 2022, MaxMem=  2147483648 cpu:         0.2
 (Enter /gpfs/runtime/opt/gaussian/g09-D01/g09/l103.exe)

 GradGradGradGradGradGradGradGradGradGradGradGradGradGradGradGradGradGrad
 Berny optimization.
 Red2BG is reusing G-inverse.
 Internal  Forces:  Max     0.000032070 RMS     0.000012173
 Search for a local minimum.
 Step number   1 out of a maximum of    2
 All quantities printed in internal units (Hartrees-Bohrs-Radians)
 Second derivative matrix not updated -- analytic derivatives used.
 ITU=  0
     Eigenvalues ---    0.00388   0.00799   0.01225   0.01966   0.02806
     Eigenvalues ---    0.04083   0.07313   0.08334   0.08348   0.10676
     Eigenvalues ---    0.19653   0.22269   0.24528   0.30489   0.32731
     Eigenvalues ---    0.35210   0.35497   0.37669   0.47961   0.48731
     Eigenvalues ---    0.81304
 Angle between quadratic step and forces=  74.18 degrees.
 Linear search not attempted -- first point.
 Iteration  1 RMS(Cart)=  0.00044344 RMS(Int)=  0.00000040
 Iteration  2 RMS(Cart)=  0.00000076 RMS(Int)=  0.00000000
 ITry= 1 IFail=0 DXMaxC= 1.61D-03 DCOld= 1.00D+10 DXMaxT= 3.00D-01 DXLimC= 3.00D+00 Rises=F
 Variable       Old X    -DE/DX   Delta X   Delta X   Delta X     New X
                                 (Linear)    (Quad)   (Total)
    R1        2.33170   0.00002   0.00000   0.00002   0.00002   2.33172
    R2        3.34451   0.00002   0.00000   0.00028   0.00028   3.34480
    R3        2.47599   0.00001   0.00000   0.00002   0.00002   2.47600
    R4        2.47598   0.00002   0.00000   0.00003   0.00003   2.47600
    R5        2.75117   0.00003   0.00000   0.00012   0.00012   2.75129
    R6        2.73295   0.00003   0.00000   0.00013   0.00013   2.73308
    R7        2.05706   0.00000   0.00000   0.00001   0.00001   2.05707
    R8        2.75129   0.00000   0.00000  -0.00001  -0.00001   2.75129
    R9        2.05705   0.00001   0.00000   0.00002   0.00002   2.05707
    A1        2.15895   0.00000   0.00000   0.00000   0.00000   2.15896
    A2        2.15893   0.00001   0.00000   0.00002   0.00002   2.15896
    A3        1.96530  -0.00001   0.00000  -0.00003  -0.00003   1.96527
    A4        1.88171  -0.00001   0.00000   0.00000   0.00000   1.88171
    A5        1.79937   0.00001   0.00000   0.00002   0.00002   1.79939
    A6        1.91192  -0.00001   0.00000  -0.00014  -0.00014   1.91177
    A7        2.12704   0.00000   0.00000  -0.00004  -0.00004   2.12700
    A8        1.79943  -0.00002   0.00000  -0.00004  -0.00004   1.79939
    A9        2.12700   0.00001   0.00000   0.00000   0.00000   2.12700
   A10        1.91191   0.00000   0.00000  -0.00013  -0.00013   1.91177
   A11        1.88159   0.00002   0.00000   0.00012   0.00012   1.88171
   A12        3.14165   0.00000   0.00000  -0.00004  -0.00004   3.14162
   A13        3.14422  -0.00001   0.00000  -0.00278  -0.00278   3.14144
    D1       -3.00659   0.00000   0.00000   0.00020   0.00020  -3.00639
    D2        0.13509   0.00000   0.00000   0.00011   0.00011   0.13520
    D3       -3.00612   0.00000   0.00000  -0.00028  -0.00028  -3.00640
    D4        0.13538   0.00000   0.00000  -0.00019  -0.00019   0.13520
    D5       -0.34376   0.00000   0.00000   0.00003   0.00003  -0.34374
    D6       -2.63250   0.00000   0.00000   0.00016   0.00016  -2.63235
    D7        0.40001   0.00000   0.00000  -0.00015  -0.00015   0.39986
    D8        2.55209  -0.00001   0.00000  -0.00036  -0.00036   2.55173
    D9        2.55208   0.00000   0.00000  -0.00035  -0.00035   2.55173
   D10       -1.57902  -0.00001   0.00000  -0.00057  -0.00057  -1.57959
   D11       -0.34394   0.00000   0.00000   0.00020   0.00020  -0.34374
   D12       -2.63266   0.00000   0.00000   0.00030   0.00030  -2.63235
         Item               Value     Threshold  Converged?
 Maximum Force            0.000032     0.000450     YES
 RMS     Force            0.000012     0.000300     YES
 Maximum Displacement     0.001608     0.001800     YES
 RMS     Displacement     0.000443     0.001200     YES
 Predicted change in Energy=-2.874334D-08
 Optimization completed.
    -- Stationary point found.
                           ----------------------------
                           !   Optimized Parameters   !
                           ! (Angstroms and Degrees)  !
 --------------------------                            --------------------------
 ! Name  Definition              Value          Derivative Info.                !
 --------------------------------------------------------------------------------
 ! R1    R(1,2)                  1.2339         -DE/DX =    0.0                 !
 ! R2    R(1,9)                  1.7698         -DE/DX =    0.0                 !
 ! R3    R(2,3)                  1.3102         -DE/DX =    0.0                 !
 ! R4    R(2,6)                  1.3102         -DE/DX =    0.0                 !
 ! R5    R(3,4)                  1.4559         -DE/DX =    0.0                 !
 ! R6    R(4,5)                  1.4462         -DE/DX =    0.0                 !
 ! R7    R(4,7)                  1.0885         -DE/DX =    0.0                 !
 ! R8    R(5,6)                  1.4559         -DE/DX =    0.0                 !
 ! R9    R(5,8)                  1.0885         -DE/DX =    0.0                 !
 ! A1    A(1,2,3)              123.6989         -DE/DX =    0.0                 !
 ! A2    A(1,2,6)              123.6977         -DE/DX =    0.0                 !
 ! A3    A(3,2,6)              112.6034         -DE/DX =    0.0                 !
 ! A4    A(2,3,4)              107.8139         -DE/DX =    0.0                 !
 ! A5    A(3,4,5)              103.0965         -DE/DX =    0.0                 !
 ! A6    A(3,4,7)              109.5448         -DE/DX =    0.0                 !
 ! A7    A(5,4,7)              121.8705         -DE/DX =    0.0                 !
 ! A8    A(4,5,6)              103.0999         -DE/DX =    0.0                 !
 ! A9    A(4,5,8)              121.8682         -DE/DX =    0.0                 !
 ! A10   A(6,5,8)              109.5441         -DE/DX =    0.0                 !
 ! A11   A(2,6,5)              107.8071         -DE/DX =    0.0                 !
 ! A12   L(2,1,9,6,-1)         180.0034         -DE/DX =    0.0                 !
 ! A13   L(2,1,9,6,-2)         180.1508         -DE/DX =    0.0                 !
 ! D1    D(1,2,3,4)           -172.2649         -DE/DX =    0.0                 !
 ! D2    D(6,2,3,4)              7.7399         -DE/DX =    0.0                 !
 ! D3    D(1,2,6,5)           -172.2382         -DE/DX =    0.0                 !
 ! D4    D(3,2,6,5)              7.757          -DE/DX =    0.0                 !
 ! D5    D(2,3,4,5)            -19.6963         -DE/DX =    0.0                 !
 ! D6    D(2,3,4,7)           -150.8312         -DE/DX =    0.0                 !
 ! D7    D(3,4,5,6)             22.9188         -DE/DX =    0.0                 !
 ! D8    D(3,4,5,8)            146.2241         -DE/DX =    0.0                 !
 ! D9    D(7,4,5,6)            146.2235         -DE/DX =    0.0                 !
 ! D10   D(7,4,5,8)            -90.4711         -DE/DX =    0.0                 !
 ! D11   D(4,5,6,2)            -19.7061         -DE/DX =    0.0                 !
 ! D12   D(8,5,6,2)           -150.8401         -DE/DX =    0.0                 !
 --------------------------------------------------------------------------------
 GradGradGradGradGradGradGradGradGradGradGradGradGradGradGradGradGradGrad

 Leave Link  103 at Mon May 16 18:10:47 2022, MaxMem=  2147483648 cpu:         0.1
 (Enter /gpfs/runtime/opt/gaussian/g09-D01/g09/l9999.exe)
 1\1\GINC-NODE1161\Freq\UM062X\6-31+G(d,p)\C3H2Li1O3(2)\ROOT\16-May-202
 2\0\\#P Geom=AllCheck Guess=TCheck SCRF=Check GenChk UM062X/6-31+G(d,p
 ) Freq\\872-36-6\\0,2\O,1.7276427414,0.0000133961,-0.0010062176\C,0.49
 37590882,-0.0000187956,-0.0004520146\O,-0.2331886809,1.0869235162,0.08
 21452937\C,-1.6228748104,0.6824440817,0.2392445951\C,-1.6229807631,-0.
 6824238543,-0.2389578916\O,-0.2331798503,-1.0870023281,-0.0824989643\H
 ,-2.2739526235,1.4419014729,-0.190008461\H,-2.2738884667,-1.4418445485
 ,0.190603606\Li,3.4974823653,-0.0000039404,0.0004630542\\Version=EM64L
 -G09RevD.01\State=2-A\HF=-348.5606104\S2=0.756548\S2-1=0.\S2A=0.750016
 \RMSD=1.633e-09\RMSF=4.928e-05\ZeroPoint=0.0500606\Thermal=0.0563665\D
 ipole=5.7389536,0.0000747,0.0016314\DipoleDeriv=-3.0248793,-0.0000481,
 0.0006023,-0.0000377,-0.6817344,0.0279131,0.0005241,-0.0247657,-0.6314
 026,3.5145282,0.0000021,-0.001059,-0.000102,1.4157889,-0.2707198,-0.00
 12721,0.1058897,0.5796044,-1.479947,-0.2051566,-0.2844929,0.5825165,-0
 .8550678,0.0700527,0.3523948,0.1687572,-0.0745064,0.4793427,0.3000988,
 0.2899641,0.1144822,-0.0123953,-0.0771305,-0.0502733,-0.5961324,-0.682
 5621,0.4792426,-0.3002657,-0.2903878,-0.1146819,-0.0122662,-0.0769067,
 0.0496757,-0.5960014,-0.6824836,-1.4799883,0.205028,0.2850905,-0.58233
 76,-0.8551854,0.0703895,-0.3514792,0.1688422,-0.074433,0.0751576,-0.01
 04719,-0.0749912,0.1097097,0.0430854,0.1278648,-0.2047833,0.3869013,0.
 3270678,0.0753487,0.0108228,0.075272,-0.1095464,0.0432497,0.1280391,0.
 2048857,0.3867429,0.3268176,1.361195,-0.0000095,0.000002,-0.0000028,0.
 9145253,0.000498,0.0003276,-0.0002338,0.9118979\Polar=84.0553867,0.006
 8845,76.2760412,0.0005977,26.5463731,85.7160583\PG=C01 [X(C3H2Li1O3)]\
 NImag=0\\0.81108091,0.00002342,0.09508221,-0.00025851,0.00577239,0.032
 28266,-0.59241207,-0.00001591,0.00023130,1.08034528,-0.00001803,-0.092
 47890,-0.00515082,0.00003582,0.63176995,0.00021381,-0.00323681,-0.0692
 9351,-0.00031574,0.04592191,0.22103861,-0.08045912,0.06379955,0.004636
 37,-0.16629318,0.09864697,0.00574322,0.43699285,0.05244669,0.00362040,
 0.00015837,0.06887931,-0.27254959,-0.02048467,-0.08865596,0.49605179,0
 .00487081,-0.00317824,0.01522099,0.00443335,-0.01021503,-0.07738976,-0
 .01138311,0.02870931,0.05799258,0.00447200,-0.00824429,-0.00237044,-0.
 06169579,0.06075503,0.01702105,-0.14459441,-0.01649892,0.02517901,0.43
 475050,0.00191641,-0.00582471,-0.00117031,0.02438249,0.00665878,-0.000
 13076,-0.05142291,-0.09016257,0.00728832,-0.13279819,0.59665911,0.0013
 1740,0.00269004,0.00419087,0.00274399,-0.01217868,0.00217117,-0.007591
 96,0.00046730,-0.03202550,0.06320551,-0.00643876,0.16306615,0.00448100
 ,0.00824624,0.00237004,-0.06172197,-0.06076957,-0.01699018,-0.04695725
 ,-0.01133911,-0.00302194,-0.05356291,0.02466974,-0.00218748,0.43464331
 ,-0.00191609,-0.00582559,-0.00117065,-0.02438091,0.00665990,-0.0001087
 5,-0.03088595,-0.02965045,-0.00730642,-0.02470353,-0.27727399,-0.08729
 181,0.13282799,0.59664341,-0.00131591,0.00268919,0.00418796,-0.0027135
 8,-0.01215819,0.00219032,-0.00620050,0.01155059,0.00717938,0.00218030,
 -0.08730494,-0.08039595,-0.06335694,-0.00650631,0.16314492,-0.08046974
 ,-0.06380815,-0.00457246,-0.16627180,-0.09865254,-0.00567111,0.0156279
 4,-0.02297835,-0.00677695,-0.04693984,0.03087287,0.00621952,-0.1445223
 9,0.05139791,0.00765663,0.43688657,-0.05245143,0.00361278,0.00019735,-
 0.06890403,-0.27257296,-0.02044341,0.02297226,-0.11327307,-0.01000840,
 0.01133540,-0.02963822,0.01154326,0.01647864,-0.09015279,0.00045872,0.
 08871830,0.49606016,-0.00478213,-0.00313180,0.01522717,-0.00437204,-0.
 01014222,-0.07735242,0.00678359,-0.01000345,0.02786174,0.00304600,-0.0
 0731713,0.00717175,-0.02511045,0.00725619,-0.03205156,0.01112999,0.028
 63195,0.05798737,-0.00267404,0.00223386,0.00081999,-0.00277405,-0.0093
 4358,-0.00250642,-0.02623490,0.02391465,-0.01209739,-0.13638702,0.1054
 4735,-0.06270050,0.00480475,0.00300454,0.00086994,0.00458527,0.0003666
 3,0.00066137,0.15998696,-0.00024180,0.00104654,0.00056757,-0.00377607,
 -0.00326742,-0.00075303,-0.01177906,0.01126084,-0.00634603,0.12505441,
 -0.19406449,0.07935415,0.01498832,-0.00626979,0.01185654,0.00336040,-0
 .00505522,0.00111424,-0.12660154,0.19844388,-0.00095793,-0.00090836,0.
 00033614,0.00348362,0.00197485,-0.00018922,0.00709983,-0.00561677,0.00
 220767,-0.09607811,0.10604183,-0.07229530,0.01216775,-0.01097196,0.008
 05744,-0.00087676,-0.00472530,-0.00135018,0.07497226,-0.08437673,0.064
 37927,-0.00267627,-0.00223546,-0.00081776,-0.00277222,0.00934658,0.002
 50458,0.00458501,-0.00037008,-0.00066437,0.00479866,-0.00301237,-0.000
 86816,-0.13632240,-0.10539905,0.06274058,-0.02622946,-0.02391431,0.012
 11123,-0.00164523,-0.00095493,0.00002780,0.15992365,0.00024017,0.00104
 658,0.00056725,0.00377930,-0.00326684,-0.00075614,-0.00336194,-0.00505
 764,0.00111567,-0.01498324,-0.00627352,0.01186173,-0.12501901,-0.19405
 025,0.07942144,0.01177709,0.01125920,-0.00635035,0.00095339,-0.0021023
 8,-0.00141830,0.12656427,0.19843664,0.00095934,-0.00090763,0.00033663,
 -0.00348230,0.00197399,-0.00018899,0.00087675,-0.00472710,-0.00134901,
 -0.01216942,-0.01096976,0.00806247,0.09611640,0.10609759,-0.07236709,-
 0.00708538,-0.00560651,0.00220323,-0.00002720,-0.00141822,-0.00115652,
 -0.07502675,-0.08444297,0.06444890,-0.06134267,0.00000075,-0.00003853,
 -0.02640419,-0.00000069,0.00000080,0.00733306,-0.00539821,-0.00053941,
 -0.00084120,-0.00005538,-0.00013832,-0.00084215,0.00005508,0.00013947,
 0.00733346,0.00539855,0.00053246,0.00033826,-0.00004973,0.00016156,0.0
 0033826,0.00004996,-0.00016144,0.07408717,0.00000068,-0.00027931,0.000
 22885,0.,-0.00095290,-0.00000835,0.00068704,-0.00023970,-0.00005917,0.
 00008333,-0.00008039,-0.00000723,-0.00008324,-0.00008045,-0.00000705,-
 0.00068753,-0.00023986,-0.00005744,0.00002471,0.00000805,0.00000074,-0
 .00002465,0.00000821,0.00000061,-0.00000034,0.00185635,-0.00004688,0.0
 0021124,-0.00248890,-0.00000860,-0.00002581,-0.00098620,0.00003581,-0.
 00005360,0.00030192,-0.00001389,0.00000152,0.00005435,0.00001280,0.000
 00211,0.00005459,-0.00002347,-0.00004766,0.00030289,0.00000797,0.00000
 150,0.00001071,-0.00000714,0.00000167,0.00001039,0.00004341,-0.0000909
 7,0.00274025\\0.00000039,-0.00000336,-0.00001423,-0.00001057,0.0000003
 3,0.00000110,-0.00002195,-0.00001525,-0.00008950,0.00001680,0.00001072
 ,-0.00008355,0.00002256,0.00001389,0.00007927,0.00002290,-0.00001177,0
 .00009824,-0.00000471,-0.00002021,-0.00012297,-0.00000460,0.00002607,0
 .00012277,-0.00002083,-0.00000041,0.00000886\\\@


 It takes a long time to grow an old friend.
                            -- John Leonard
 Job cpu time:       0 days  0 hours  6 minutes 59.4 seconds.
 File lengths (MBytes):  RWF=    564 Int=      0 D2E=      0 Chk=     12 Scr=      8
 Normal termination of Gaussian 09 at Mon May 16 18:10:47 2022.
