 Entering Gaussian System, Link 0=g09
 Initial command:
 /gpfs/runtime/opt/gaussian/g09-D01/g09/l1.exe "/gpfs/data/yqi27/cgu13/CHEM1560Q/Gaussian/4427-96-7/inp2/Gau-97851.inp" -scrdir="/gpfs/data/yqi27/cgu13/CHEM1560Q/Gaussian/4427-96-7/inp2/"
 Entering Link 1 = /gpfs/runtime/opt/gaussian/g09-D01/g09/l1.exe PID=     97856.
  
 Copyright (c) 1988,1990,1992,1993,1995,1998,2003,2009,2013,
            Gaussian, Inc.  All Rights Reserved.
  
 This is part of the Gaussian(R) 09 program.  It is based on
 the Gaussian(R) 03 system (copyright 2003, Gaussian, Inc.),
 the Gaussian(R) 98 system (copyright 1998, Gaussian, Inc.),
 the Gaussian(R) 94 system (copyright 1995, Gaussian, Inc.),
 the Gaussian 92(TM) system (copyright 1992, Gaussian, Inc.),
 the Gaussian 90(TM) system (copyright 1990, Gaussian, Inc.),
 the Gaussian 88(TM) system (copyright 1988, Gaussian, Inc.),
 the Gaussian 86(TM) system (copyright 1986, Carnegie Mellon
 University), and the Gaussian 82(TM) system (copyright 1983,
 Carnegie Mellon University). Gaussian is a federally registered
 trademark of Gaussian, Inc.
  
 This software contains proprietary and confidential information,
 including trade secrets, belonging to Gaussian, Inc.
  
 This software is provided under written license and may be
 used, copied, transmitted, or stored only in accord with that
 written license.
  
 The following legend is applicable only to US Government
 contracts under FAR:
  
                    RESTRICTED RIGHTS LEGEND
  
 Use, reproduction and disclosure by the US Government is
 subject to restrictions as set forth in subparagraphs (a)
 and (c) of the Commercial Computer Software - Restricted
 Rights clause in FAR 52.227-19.
  
 Gaussian, Inc.
 340 Quinnipiac St., Bldg. 40, Wallingford CT 06492
  
  
 ---------------------------------------------------------------
 Warning -- This program may not be used in any manner that
 competes with the business of Gaussian, Inc. or will provide
 assistance to any competitor of Gaussian, Inc.  The licensee
 of this program is prohibited from giving any competitor of
 Gaussian, Inc. access to this program.  By using this program,
 the user acknowledges that Gaussian, Inc. is engaged in the
 business of creating and licensing software in the field of
 computational chemistry and represents and warrants to the
 licensee that it is not a competitor of Gaussian, Inc. and that
 it will not use this program in any manner prohibited above.
 ---------------------------------------------------------------
  

 Cite this work as:
 Gaussian 09, Revision D.01,
 M. J. Frisch, G. W. Trucks, H. B. Schlegel, G. E. Scuseria, 
 M. A. Robb, J. R. Cheeseman, G. Scalmani, V. Barone, B. Mennucci, 
 G. A. Petersson, H. Nakatsuji, M. Caricato, X. Li, H. P. Hratchian, 
 A. F. Izmaylov, J. Bloino, G. Zheng, J. L. Sonnenberg, M. Hada, 
 M. Ehara, K. Toyota, R. Fukuda, J. Hasegawa, M. Ishida, T. Nakajima, 
 Y. Honda, O. Kitao, H. Nakai, T. Vreven, J. A. Montgomery, Jr., 
 J. E. Peralta, F. Ogliaro, M. Bearpark, J. J. Heyd, E. Brothers, 
 K. N. Kudin, V. N. Staroverov, T. Keith, R. Kobayashi, J. Normand, 
 K. Raghavachari, A. Rendell, J. C. Burant, S. S. Iyengar, J. Tomasi, 
 M. Cossi, N. Rega, J. M. Millam, M. Klene, J. E. Knox, J. B. Cross, 
 V. Bakken, C. Adamo, J. Jaramillo, R. Gomperts, R. E. Stratmann, 
 O. Yazyev, A. J. Austin, R. Cammi, C. Pomelli, J. W. Ochterski, 
 R. L. Martin, K. Morokuma, V. G. Zakrzewski, G. A. Voth, 
 P. Salvador, J. J. Dannenberg, S. Dapprich, A. D. Daniels, 
 O. Farkas, J. B. Foresman, J. V. Ortiz, J. Cioslowski, 
 and D. J. Fox, Gaussian, Inc., Wallingford CT, 2013.
 
 ******************************************
 Gaussian 09:  EM64L-G09RevD.01 24-Apr-2013
                16-May-2022 
 ******************************************
 %Mem=16GB
 %NProcShared=8
 Will use up to    8 processors via shared memory.
 ----------------------------------------------------------------------
 #P M062X/6-31+G** EmpiricalDispersion=GD3 SCRF(SMD,solvent=DiMethylSul
 foxide) Opt Freq
 ----------------------------------------------------------------------
 1/14=-1,18=20,19=15,26=3,38=1/1,3;
 2/9=110,12=2,17=6,18=5,40=1/2;
 3/5=1,6=6,7=111,11=2,16=1,25=1,30=1,70=32201,71=1,72=21,74=-55,124=31/1,2,3;
 4//1;
 5/5=2,38=5,53=21/2;
 6/7=2,8=2,9=2,10=2,28=1/1;
 7//1,2,3,16;
 1/14=-1,18=20,19=15,26=3/3(2);
 2/9=110/2;
 99//99;
 2/9=110/2;
 3/5=1,6=6,7=111,11=2,16=1,25=1,30=1,70=32205,71=1,72=21,74=-55,124=31/1,2,3;
 4/5=5,16=3,69=1/1;
 5/5=2,38=5,53=21/2;
 7//1,2,3,16;
 1/14=-1,18=20,19=15,26=3/3(-5);
 2/9=110/2;
 6/7=2,8=2,9=2,10=2,19=2,28=1/1;
 99/9=1/99;
 Leave Link    1 at Mon May 16 16:57:08 2022, MaxMem=  2147483648 cpu:         1.0
 (Enter /gpfs/runtime/opt/gaussian/g09-D01/g09/l101.exe)
 ---------
 4427-96-7
 ---------
 Symbolic Z-matrix:
 Charge =  1 Multiplicity = 1
 C                     3.1116    0.4034    0.0615 
 C                     1.8904    0.2228    0.4999 
 C                     0.7805   -0.0914   -0.4698 
 H                     1.1621   -0.1191   -1.4905 
 C                     0.1086   -1.4298   -0.1073 
 O                    -1.2726   -1.0622    0.1778 
 C                    -1.4177    0.2576    0.0189 
 O                    -2.472     0.8342    0.1936 
 O                    -0.2938    0.8864   -0.3519 
 H                     3.907     0.6286    0.7565 
 H                     3.3238    0.3227   -0.9943 
 H                     1.679     0.2991    1.5563 
 H                     0.1544   -2.1211   -0.9489 
 H                     0.5778   -1.867     0.774 
 Li                    0.8028    3.8864   -0.0232 
 
 Add virtual bond connecting atoms Li15       and O9         Dist= 6.07D+00.
 NAtoms=     15 NQM=       15 NQMF=       0 NMMI=      0 NMMIF=      0
                NMic=       0 NMicF=      0.
                    Isotopes and Nuclear Properties:
 (Nuclear quadrupole moments (NQMom) in fm**2, nuclear magnetic moments (NMagM)
  in nuclear magnetons)

  Atom         1           2           3           4           5           6           7           8           9          10
 IAtWgt=          12          12          12           1          12          16          12          16          16           1
 AtmWgt=  12.0000000  12.0000000  12.0000000   1.0078250  12.0000000  15.9949146  12.0000000  15.9949146  15.9949146   1.0078250
 NucSpn=           0           0           0           1           0           0           0           0           0           1
 AtZEff=   0.0000000   0.0000000   0.0000000   0.0000000   0.0000000   0.0000000   0.0000000   0.0000000   0.0000000   0.0000000
 NQMom=    0.0000000   0.0000000   0.0000000   0.0000000   0.0000000   0.0000000   0.0000000   0.0000000   0.0000000   0.0000000
 NMagM=    0.0000000   0.0000000   0.0000000   2.7928460   0.0000000   0.0000000   0.0000000   0.0000000   0.0000000   2.7928460
 AtZNuc=   6.0000000   6.0000000   6.0000000   1.0000000   6.0000000   8.0000000   6.0000000   8.0000000   8.0000000   1.0000000

  Atom        11          12          13          14          15
 IAtWgt=           1           1           1           1           7
 AtmWgt=   1.0078250   1.0078250   1.0078250   1.0078250   7.0160045
 NucSpn=           1           1           1           1           3
 AtZEff=   0.0000000   0.0000000   0.0000000   0.0000000   0.0000000
 NQMom=    0.0000000   0.0000000   0.0000000   0.0000000  -4.0100000
 NMagM=    2.7928460   2.7928460   2.7928460   2.7928460   3.2564240
 AtZNuc=   1.0000000   1.0000000   1.0000000   1.0000000   3.0000000
 Leave Link  101 at Mon May 16 16:57:09 2022, MaxMem=  2147483648 cpu:         3.3
 (Enter /gpfs/runtime/opt/gaussian/g09-D01/g09/l103.exe)

 GradGradGradGradGradGradGradGradGradGradGradGradGradGradGradGradGradGrad
 Berny optimization.
 Initialization pass.
                           ----------------------------
                           !    Initial Parameters    !
                           ! (Angstroms and Degrees)  !
 --------------------------                            --------------------------
 ! Name  Definition              Value          Derivative Info.                !
 --------------------------------------------------------------------------------
 ! R1    R(1,2)                  1.31           estimate D2E/DX2                !
 ! R2    R(1,10)                 1.08           estimate D2E/DX2                !
 ! R3    R(1,11)                 1.0799         estimate D2E/DX2                !
 ! R4    R(2,3)                  1.507          estimate D2E/DX2                !
 ! R5    R(2,12)                 1.08           estimate D2E/DX2                !
 ! R6    R(3,4)                  1.0901         estimate D2E/DX2                !
 ! R7    R(3,5)                  1.5408         estimate D2E/DX2                !
 ! R8    R(3,9)                  1.4574         estimate D2E/DX2                !
 ! R9    R(5,6)                  1.4574         estimate D2E/DX2                !
 ! R10   R(5,13)                 1.0901         estimate D2E/DX2                !
 ! R11   R(5,14)                 1.0899         estimate D2E/DX2                !
 ! R12   R(6,7)                  1.3372         estimate D2E/DX2                !
 ! R13   R(7,8)                  1.2143         estimate D2E/DX2                !
 ! R14   R(7,9)                  1.3402         estimate D2E/DX2                !
 ! R15   R(9,15)                 3.211          estimate D2E/DX2                !
 ! A1    A(2,1,10)             119.9961         estimate D2E/DX2                !
 ! A2    A(2,1,11)             120.0029         estimate D2E/DX2                !
 ! A3    A(10,1,11)            120.0004         estimate D2E/DX2                !
 ! A4    A(1,2,3)              119.999          estimate D2E/DX2                !
 ! A5    A(1,2,12)             120.0033         estimate D2E/DX2                !
 ! A6    A(3,2,12)             119.9977         estimate D2E/DX2                !
 ! A7    A(2,3,4)              110.4876         estimate D2E/DX2                !
 ! A8    A(2,3,5)              110.5416         estimate D2E/DX2                !
 ! A9    A(2,3,9)              110.5461         estimate D2E/DX2                !
 ! A10   A(4,3,5)              110.5409         estimate D2E/DX2                !
 ! A11   A(4,3,9)              110.5389         estimate D2E/DX2                !
 ! A12   A(5,3,9)              104.0224         estimate D2E/DX2                !
 ! A13   A(3,5,6)              103.8976         estimate D2E/DX2                !
 ! A14   A(3,5,13)             110.5423         estimate D2E/DX2                !
 ! A15   A(3,5,14)             110.5443         estimate D2E/DX2                !
 ! A16   A(6,5,13)             110.536          estimate D2E/DX2                !
 ! A17   A(6,5,14)             110.5462         estimate D2E/DX2                !
 ! A18   A(13,5,14)            110.597          estimate D2E/DX2                !
 ! A19   A(5,6,7)              109.1792         estimate D2E/DX2                !
 ! A20   A(6,7,8)              123.077          estimate D2E/DX2                !
 ! A21   A(6,7,9)              113.8887         estimate D2E/DX2                !
 ! A22   A(8,7,9)              123.0342         estimate D2E/DX2                !
 ! A23   A(3,9,7)              109.0119         estimate D2E/DX2                !
 ! A24   A(3,9,15)             112.5422         estimate D2E/DX2                !
 ! A25   A(7,9,15)             134.1424         estimate D2E/DX2                !
 ! D1    D(10,1,2,3)           179.9986         estimate D2E/DX2                !
 ! D2    D(10,1,2,12)           -0.0002         estimate D2E/DX2                !
 ! D3    D(11,1,2,3)            -0.2775         estimate D2E/DX2                !
 ! D4    D(11,1,2,12)          179.7237         estimate D2E/DX2                !
 ! D5    D(1,2,3,4)             -0.7015         estimate D2E/DX2                !
 ! D6    D(1,2,3,5)            121.9826         estimate D2E/DX2                !
 ! D7    D(1,2,3,9)           -123.3863         estimate D2E/DX2                !
 ! D8    D(12,2,3,4)           179.2973         estimate D2E/DX2                !
 ! D9    D(12,2,3,5)           -58.0185         estimate D2E/DX2                !
 ! D10   D(12,2,3,9)            56.6125         estimate D2E/DX2                !
 ! D11   D(2,3,5,6)            118.6082         estimate D2E/DX2                !
 ! D12   D(2,3,5,13)          -122.7957         estimate D2E/DX2                !
 ! D13   D(2,3,5,14)            -0.0009         estimate D2E/DX2                !
 ! D14   D(4,3,5,6)           -118.7388         estimate D2E/DX2                !
 ! D15   D(4,3,5,13)            -0.1427         estimate D2E/DX2                !
 ! D16   D(4,3,5,14)           122.6521         estimate D2E/DX2                !
 ! D17   D(9,3,5,6)             -0.0697         estimate D2E/DX2                !
 ! D18   D(9,3,5,13)           118.5264         estimate D2E/DX2                !
 ! D19   D(9,3,5,14)          -118.6788         estimate D2E/DX2                !
 ! D20   D(2,3,9,7)           -118.5507         estimate D2E/DX2                !
 ! D21   D(2,3,9,15)            41.5986         estimate D2E/DX2                !
 ! D22   D(4,3,9,7)            118.7945         estimate D2E/DX2                !
 ! D23   D(4,3,9,15)           -81.0562         estimate D2E/DX2                !
 ! D24   D(5,3,9,7)              0.1241         estimate D2E/DX2                !
 ! D25   D(5,3,9,15)           160.2734         estimate D2E/DX2                !
 ! D26   D(3,5,6,7)             -0.0061         estimate D2E/DX2                !
 ! D27   D(13,5,6,7)          -118.6065         estimate D2E/DX2                !
 ! D28   D(14,5,6,7)           118.6017         estimate D2E/DX2                !
 ! D29   D(5,6,7,8)           -179.9616         estimate D2E/DX2                !
 ! D30   D(5,6,7,9)              0.0913         estimate D2E/DX2                !
 ! D31   D(6,7,9,3)             -0.1403         estimate D2E/DX2                !
 ! D32   D(6,7,9,15)          -154.225          estimate D2E/DX2                !
 ! D33   D(8,7,9,3)            179.9126         estimate D2E/DX2                !
 ! D34   D(8,7,9,15)            25.8279         estimate D2E/DX2                !
 --------------------------------------------------------------------------------
 Trust Radius=3.00D-01 FncErr=1.00D-07 GrdErr=1.00D-06
 Number of steps in this run=     84 maximum allowed number of steps=    100.
 GradGradGradGradGradGradGradGradGradGradGradGradGradGradGradGradGradGrad

 Leave Link  103 at Mon May 16 16:57:09 2022, MaxMem=  2147483648 cpu:         0.2
 (Enter /gpfs/runtime/opt/gaussian/g09-D01/g09/l202.exe)
                          Input orientation:                          
 ---------------------------------------------------------------------
 Center     Atomic      Atomic             Coordinates (Angstroms)
 Number     Number       Type             X           Y           Z
 ---------------------------------------------------------------------
      1          6           0        3.111600    0.403400    0.061500
      2          6           0        1.890400    0.222800    0.499900
      3          6           0        0.780500   -0.091400   -0.469800
      4          1           0        1.162100   -0.119100   -1.490500
      5          6           0        0.108600   -1.429800   -0.107300
      6          8           0       -1.272600   -1.062200    0.177800
      7          6           0       -1.417700    0.257600    0.018900
      8          8           0       -2.472000    0.834200    0.193600
      9          8           0       -0.293800    0.886400   -0.351900
     10          1           0        3.907000    0.628600    0.756500
     11          1           0        3.323800    0.322700   -0.994300
     12          1           0        1.679000    0.299100    1.556300
     13          1           0        0.154400   -2.121100   -0.948900
     14          1           0        0.577800   -1.867000    0.774000
     15          3           0        0.802800    3.886400   -0.023200
 ---------------------------------------------------------------------
                    Distance matrix (angstroms):
                    1          2          3          4          5
     1  C    0.000000
     2  C    1.310015   0.000000
     3  C    2.441543   1.506956   0.000000
     4  H    2.546028   2.146860   1.090052   0.000000
     5  C    3.522375   2.504913   1.540834   2.177393   0.000000
     6  O    4.624145   3.429219   2.361580   3.098456   1.457438
     7  C    4.531846   3.343067   2.278752   3.012567   2.278780
     8  O    5.601752   4.415672   3.446098   4.117239   3.446119
     9  O    3.464237   2.436526   1.457434   2.104064   2.363586
    10  H    1.080001   2.072967   3.434707   3.625264   4.405792
    11  H    1.079933   2.072981   2.629630   2.261493   3.767696
    12  H    2.073077   1.080043   2.250527   3.118504   2.867545
    13  H    4.017342   3.256775   2.177434   2.305817   1.090084
    14  H    3.475991   2.483005   2.177356   2.919678   1.089946
    15  Li   4.179596   3.857262   4.002854   4.280899   5.361993
                    6          7          8          9         10
     6  O    0.000000
     7  C    1.337227   0.000000
     8  O    2.243912   1.214305   0.000000
     9  O    2.244031   1.340162   2.246074   0.000000
    10  H    5.479229   5.388332   6.407087   4.352210   0.000000
    11  H    4.941524   4.848983   5.938353   3.717185   1.870561
    12  H    3.530629   3.457582   4.401600   2.806793   2.390028
    13  H    2.104056   3.011038   4.115469   3.098766   4.954921
    14  H    2.104076   3.011000   4.115170   3.099766   4.160757
    15  Li   5.369947   4.254478   4.481879   3.211008   4.566974
                   11         12         13         14         15
    11  H    0.000000
    12  H    3.035043   0.000000
    13  H    4.002414   3.802341   0.000000
    14  H    3.932199   2.552768   1.792266   0.000000
    15  Li   4.471961   4.016375   6.112888   5.812724   0.000000
 Stoichiometry    C5H6LiO3(1+)
 Framework group  C1[X(C5H6LiO3)]
 Deg. of freedom    39
 Full point group                 C1      NOp   1
 Largest Abelian subgroup         C1      NOp   1
 Largest concise Abelian subgroup C1      NOp   1
                         Standard orientation:                         
 ---------------------------------------------------------------------
 Center     Atomic      Atomic             Coordinates (Angstroms)
 Number     Number       Type             X           Y           Z
 ---------------------------------------------------------------------
      1          6           0       -2.998344   -0.028379   -0.058420
      2          6           0       -1.766894   -0.096102   -0.500104
      3          6           0       -0.630972   -0.314641    0.465732
      4          1           0       -1.006133   -0.382139    1.486963
      5          6           0        0.157598   -1.585238    0.094367
      6          8           0        1.499511   -1.093455   -0.191192
      7          6           0        1.525827    0.233149   -0.025043
      8          8           0        2.523646    0.903102   -0.198407
      9          8           0        0.350857    0.756368    0.351416
     10          1           0       -3.812396    0.128267   -0.750651
     11          1           0       -3.199946   -0.133634    0.997294
     12          1           0       -1.565694    0.004702   -1.556442
     13          1           0        0.176074   -2.282482    0.932098
     14          1           0       -0.272502   -2.057967   -0.788539
     15          3           0       -1.011603    3.647465    0.041848
 ---------------------------------------------------------------------
 Rotational constants (GHZ):      2.6258104      1.3654462      0.9549642
 Leave Link  202 at Mon May 16 16:57:09 2022, MaxMem=  2147483648 cpu:         0.6
 (Enter /gpfs/runtime/opt/gaussian/g09-D01/g09/l301.exe)
 Standard basis: 6-31+G(d,p) (6D, 7F)
 Ernie: Thresh=  0.10000D-02 Tol=  0.10000D-05 Strict=F.
 There are   201 symmetry adapted cartesian basis functions of A   symmetry.
 There are   201 symmetry adapted basis functions of A   symmetry.
   201 basis functions,   330 primitive gaussians,   201 cartesian basis functions
    31 alpha electrons       31 beta electrons
       nuclear repulsion energy       394.9928299648 Hartrees.
 IExCor= 4336 DFT=T Ex+Corr=M062X ExCW=0 ScaHFX=  0.540000
 ScaDFX=  1.000000  1.000000  1.000000  1.000000 ScalE2=  1.000000  1.000000
 IRadAn=      0 IRanWt=     -1 IRanGd=            0 ICorTp=0 IEmpDi=131
 NAtoms=   15 NActive=   15 NUniq=   15 SFac= 1.00D+00 NAtFMM=   60 NAOKFM=F Big=F
 Integral buffers will be    131072 words long.
 Raffenetti 2 integral format.
 Two-electron integral symmetry is turned on.
 R6Disp:  Grimme-D3 Dispersion energy=       -0.0004646372 Hartrees.
 Nuclear repulsion after empirical dispersion term =      394.9923653276 Hartrees.
 ------------------------------------------------------------------------------
 Polarizable Continuum Model (PCM)
 =================================
 Model                : PCM (using non-symmetric T matrix).
 Atomic radii         : SMD-Coulomb.
 Polarization charges : Total charges.
 Charge compensation  : None.
 Solution method      : On-the-fly selection.
 Cavity type          : VdW (van der Waals Surface) (Alpha=1.000).
 Cavity algorithm     : GePol (No added spheres)
                        Default sphere list used, NSphG=   15.
                        Lebedev-Laikov grids with approx.  5.0 points / Ang**2.
                        Smoothing algorithm: Karplus/York (Gamma=1.0000).
                        Polarization charges: spherical gaussians, with
                                              point-specific exponents (IZeta= 3).
                        Self-potential: point-specific (ISelfS= 7).
                        Self-field    : sphere-specific E.n sum rule (ISelfD= 2).
 1st derivatives      : Analytical E(r).r(x)/FMM algorithm (CHGder, D1EAlg=3).
                        Cavity 1st derivative terms included.
 Solvent              : DiMethylSulfoxide, Eps=  46.826000 Eps(inf)=   2.007889
 ------------------------------------------------------------------------------
 Spheres list:
 ISph  on   Nord     Re0    Alpha      Xe            Ye            Ze
    1   C      1    1.8500  1.000     -2.998344     -0.028379     -0.058420
    2   C      2    1.8500  1.000     -1.766894     -0.096102     -0.500104
    3   C      3    1.8500  1.000     -0.630972     -0.314641      0.465732
    4   H      4    1.2000  1.000     -1.006133     -0.382139      1.486963
    5   C      5    1.8500  1.000      0.157598     -1.585238      0.094367
    6   O      6    2.2940  1.000      1.499511     -1.093455     -0.191192
    7   C      7    1.8500  1.000      1.525827      0.233149     -0.025043
    8   O      8    2.2940  1.000      2.523646      0.903102     -0.198407
    9   O      9    2.2940  1.000      0.350857      0.756368      0.351416
   10   H     10    1.2000  1.000     -3.812396      0.128267     -0.750651
   11   H     11    1.2000  1.000     -3.199946     -0.133634      0.997294
   12   H     12    1.2000  1.000     -1.565694      0.004702     -1.556442
   13   H     13    1.2000  1.000      0.176074     -2.282482      0.932098
   14   H     14    1.2000  1.000     -0.272502     -2.057967     -0.788539
   15  Li     15    1.8200  1.000     -1.011603      3.647465      0.041848
 ------------------------------------------------------------------------------
 GePol: Number of generator spheres                  =      15
 GePol: Total number of spheres                      =      15
 GePol: Number of exposed spheres                    =      15 (100.00%)
 GePol: Number of points                             =    1577
 GePol: Average weight of points                     =       0.12
 GePol: Minimum weight of points                     =   0.33D-07
 GePol: Maximum weight of points                     =    0.17992
 GePol: Number of points with low weight             =      52
 GePol: Fraction of low-weight points (<1% of avg)   =       3.30%
 GePol: Cavity surface area                          =    196.440 Ang**2
 GePol: Cavity volume                                =    179.957 Ang**3
 ------------------------------------------------------------------------------
 Atomic radii for non-electrostatic terms: SMD-CDS.
 ------------------------------------------------------------------------------
 PCM non-electrostatic energy =         0.0013763636 Hartrees.
 Nuclear repulsion after PCM non-electrostatic terms =      394.9937416912 Hartrees.
 Leave Link  301 at Mon May 16 16:57:09 2022, MaxMem=  2147483648 cpu:         0.8
 (Enter /gpfs/runtime/opt/gaussian/g09-D01/g09/l302.exe)
 NPDir=0 NMtPBC=     1 NCelOv=     1 NCel=       1 NClECP=     1 NCelD=      1
         NCelK=      1 NCelE2=     1 NClLst=     1 CellRange=     0.0.
 One-electron integrals computed using PRISM.
 NBasis=   201 RedAO= T EigKep=  2.75D-05  NBF=   201
 NBsUse=   201 1.00D-06 EigRej= -1.00D+00 NBFU=   201
 Precomputing XC quadrature grid using
 IXCGrd= 4 IRadAn=           0 IRanWt=          -1 IRanGd=           0 AccXCQ= 0.00D+00.
 Generated NRdTot=       0 NPtTot=           0 NUsed=           0 NTot=          32
 NSgBfM=   201   201   201   201   201 MxSgAt=    15 MxSgA2=    15.
 Leave Link  302 at Mon May 16 16:57:10 2022, MaxMem=  2147483648 cpu:         2.3
 (Enter /gpfs/runtime/opt/gaussian/g09-D01/g09/l303.exe)
 DipDrv:  MaxL=1.
 Leave Link  303 at Mon May 16 16:57:10 2022, MaxMem=  2147483648 cpu:         0.2
 (Enter /gpfs/runtime/opt/gaussian/g09-D01/g09/l401.exe)
 ExpMin= 7.40D-03 ExpMax= 5.48D+03 ExpMxC= 8.25D+02 IAcc=3 IRadAn=         5 AccDes= 0.00D+00
 Harris functional with IExCor= 1009 and IRadAn=       5 diagonalized for initial guess.
 HarFok:  IExCor= 1009 AccDes= 0.00D+00 IRadAn=         5 IDoV= 1 UseB2=F ITyADJ=14
 ICtDFT=  3500011 ScaDFX=  1.000000  1.000000  1.000000  1.000000
 FoFCou: FMM=F IPFlag=           0 FMFlag=      100000 FMFlg1=           0
         NFxFlg=           0 DoJE=T BraDBF=F KetDBF=T FulRan=T
         wScrn=  0.000000 ICntrl=     500 IOpCl=  0 I1Cent=   200000004 NGrid=           0
         NMat0=    1 NMatS0=      1 NMatT0=    0 NMatD0=    1 NMtDS0=    0 NMtDT0=    0
 Petite list used in FoFCou.
 Harris En= -426.794332988478    
 JPrj=0 DoOrth=F DoCkMO=F.
 Leave Link  401 at Mon May 16 16:57:11 2022, MaxMem=  2147483648 cpu:         8.2
 (Enter /gpfs/runtime/opt/gaussian/g09-D01/g09/l502.exe)
 Closed shell SCF:
 Using DIIS extrapolation, IDIIS=  1040.
 Integral symmetry usage will be decided dynamically.
 Keep R1 ints in memory in canonical form, NReq=212023238.
 IVT=      142861 IEndB=      142861 NGot=  2147483648 MDV=  1941265337
 LenX=  1941265337 LenY=  1941224495
 Requested convergence on RMS density matrix=1.00D-08 within 128 cycles.
 Requested convergence on MAX density matrix=1.00D-06.
 Requested convergence on             energy=1.00D-06.
 No special actions if energy rises.
 FoFCou: FMM=F IPFlag=           0 FMFlag=           0 FMFlg1=           0
         NFxFlg=           0 DoJE=F BraDBF=F KetDBF=F FulRan=T
         wScrn=  0.000000 ICntrl=     600 IOpCl=  0 I1Cent=           0 NGrid=           0
         NMat0=    1 NMatS0=  20301 NMatT0=    0 NMatD0=    1 NMtDS0=    0 NMtDT0=    0
 Symmetry not used in FoFCou.

 Cycle   1  Pass 1  IDiag  1:
 Inv3:  Mode=1 IEnd=     7460787.
 Iteration    1 A*A^-1 deviation from unit magnitude is 6.77D-15 for    109.
 Iteration    1 A*A^-1 deviation from orthogonality  is 4.00D-15 for   1260    294.
 Iteration    1 A^-1*A deviation from unit magnitude is 5.88D-15 for     22.
 Iteration    1 A^-1*A deviation from orthogonality  is 8.07D-12 for   1536   1520.
 E= -426.900874884651    
 DIIS: error= 1.79D-02 at cycle   1 NSaved=   1.
 NSaved= 1 IEnMin= 1 EnMin= -426.900874884651     IErMin= 1 ErrMin= 1.79D-02
 ErrMax= 1.79D-02  0.00D+00 EMaxC= 1.00D-01 BMatC= 2.35D-01 BMatP= 2.35D-01
 IDIUse=3 WtCom= 8.21D-01 WtEn= 1.79D-01
 Coeff-Com:  0.100D+01
 Coeff-En:   0.100D+01
 Coeff:      0.100D+01
 Gap=     0.510 Goal=   None    Shift=    0.000
 GapD=    0.510 DampG=2.000 DampE=0.500 DampFc=1.0000 IDamp=-1.
 RMSDP=6.52D-03 MaxDP=2.31D-01              OVMax= 2.07D-01

 Cycle   2  Pass 1  IDiag  1:
 E= -426.879954571950     Delta-E=        0.020920312701 Rises=F Damp=F
 DIIS: error= 2.49D-02 at cycle   2 NSaved=   2.
 NSaved= 2 IEnMin= 1 EnMin= -426.900874884651     IErMin= 1 ErrMin= 1.79D-02
 ErrMax= 2.49D-02  0.00D+00 EMaxC= 1.00D-01 BMatC= 2.61D-01 BMatP= 2.35D-01
 IDIUse=2 WtCom= 0.00D+00 WtEn= 1.00D+00
 Coeff-En:   0.529D+00 0.471D+00
 Coeff:      0.529D+00 0.471D+00
 Gap=     0.306 Goal=   None    Shift=    0.000
 RMSDP=3.74D-03 MaxDP=2.43D-01 DE= 2.09D-02 OVMax= 1.16D-01

 Cycle   3  Pass 1  IDiag  1:
 E= -427.071516524900     Delta-E=       -0.191561952950 Rises=F Damp=F
 DIIS: error= 5.05D-03 at cycle   3 NSaved=   3.
 NSaved= 3 IEnMin= 3 EnMin= -427.071516524900     IErMin= 3 ErrMin= 5.05D-03
 ErrMax= 5.05D-03  0.00D+00 EMaxC= 1.00D-01 BMatC= 1.08D-02 BMatP= 2.35D-01
 IDIUse=3 WtCom= 9.50D-01 WtEn= 5.05D-02
 Coeff-Com:  0.133D+00 0.196D+00 0.671D+00
 Coeff-En:   0.000D+00 0.000D+00 0.100D+01
 Coeff:      0.126D+00 0.186D+00 0.688D+00
 Gap=     0.332 Goal=   None    Shift=    0.000
 RMSDP=7.44D-04 MaxDP=2.61D-02 DE=-1.92D-01 OVMax= 3.93D-02

 Cycle   4  Pass 1  IDiag  1:
 E= -427.078646244666     Delta-E=       -0.007129719765 Rises=F Damp=F
 DIIS: error= 1.67D-03 at cycle   4 NSaved=   4.
 NSaved= 4 IEnMin= 4 EnMin= -427.078646244666     IErMin= 4 ErrMin= 1.67D-03
 ErrMax= 1.67D-03  0.00D+00 EMaxC= 1.00D-01 BMatC= 1.73D-03 BMatP= 1.08D-02
 IDIUse=3 WtCom= 9.83D-01 WtEn= 1.67D-02
 Coeff-Com:  0.389D-02 0.292D-01 0.318D+00 0.649D+00
 Coeff-En:   0.000D+00 0.000D+00 0.919D-01 0.908D+00
 Coeff:      0.382D-02 0.287D-01 0.314D+00 0.653D+00
 Gap=     0.324 Goal=   None    Shift=    0.000
 RMSDP=2.68D-04 MaxDP=8.15D-03 DE=-7.13D-03 OVMax= 9.21D-03

 Cycle   5  Pass 1  IDiag  1:
 E= -427.079954871222     Delta-E=       -0.001308626557 Rises=F Damp=F
 DIIS: error= 4.00D-04 at cycle   5 NSaved=   5.
 NSaved= 5 IEnMin= 5 EnMin= -427.079954871222     IErMin= 5 ErrMin= 4.00D-04
 ErrMax= 4.00D-04  0.00D+00 EMaxC= 1.00D-01 BMatC= 6.41D-05 BMatP= 1.73D-03
 IDIUse=3 WtCom= 9.96D-01 WtEn= 4.00D-03
 Coeff-Com: -0.251D-02 0.530D-02 0.113D+00 0.283D+00 0.601D+00
 Coeff-En:   0.000D+00 0.000D+00 0.000D+00 0.000D+00 0.100D+01
 Coeff:     -0.250D-02 0.528D-02 0.113D+00 0.282D+00 0.602D+00
 Gap=     0.323 Goal=   None    Shift=    0.000
 RMSDP=5.36D-05 MaxDP=2.39D-03 DE=-1.31D-03 OVMax= 1.67D-03

 Cycle   6  Pass 1  IDiag  1:
 E= -427.080003124796     Delta-E=       -0.000048253574 Rises=F Damp=F
 DIIS: error= 8.62D-05 at cycle   6 NSaved=   6.
 NSaved= 6 IEnMin= 6 EnMin= -427.080003124796     IErMin= 6 ErrMin= 8.62D-05
 ErrMax= 8.62D-05  0.00D+00 EMaxC= 1.00D-01 BMatC= 3.78D-06 BMatP= 6.41D-05
 IDIUse=1 WtCom= 1.00D+00 WtEn= 0.00D+00
 Coeff-Com: -0.120D-02-0.888D-03 0.134D-01 0.386D-01 0.214D+00 0.736D+00
 Coeff:     -0.120D-02-0.888D-03 0.134D-01 0.386D-01 0.214D+00 0.736D+00
 Gap=     0.323 Goal=   None    Shift=    0.000
 RMSDP=1.80D-05 MaxDP=5.71D-04 DE=-4.83D-05 OVMax= 4.31D-04

 Cycle   7  Pass 1  IDiag  1:
 E= -427.080006467452     Delta-E=       -0.000003342656 Rises=F Damp=F
 DIIS: error= 2.27D-05 at cycle   7 NSaved=   7.
 NSaved= 7 IEnMin= 7 EnMin= -427.080006467452     IErMin= 7 ErrMin= 2.27D-05
 ErrMax= 2.27D-05  0.00D+00 EMaxC= 1.00D-01 BMatC= 2.39D-07 BMatP= 3.78D-06
 IDIUse=1 WtCom= 1.00D+00 WtEn= 0.00D+00
 Coeff-Com: -0.371D-05-0.876D-03-0.692D-02-0.199D-01-0.437D-02 0.133D+00
 Coeff-Com:  0.899D+00
 Coeff:     -0.371D-05-0.876D-03-0.692D-02-0.199D-01-0.437D-02 0.133D+00
 Coeff:      0.899D+00
 Gap=     0.323 Goal=   None    Shift=    0.000
 RMSDP=7.08D-06 MaxDP=1.97D-04 DE=-3.34D-06 OVMax= 2.23D-04

 Cycle   8  Pass 1  IDiag  1:
 E= -427.080006793024     Delta-E=       -0.000000325571 Rises=F Damp=F
 DIIS: error= 7.72D-06 at cycle   8 NSaved=   8.
 NSaved= 8 IEnMin= 8 EnMin= -427.080006793024     IErMin= 8 ErrMin= 7.72D-06
 ErrMax= 7.72D-06  0.00D+00 EMaxC= 1.00D-01 BMatC= 3.21D-08 BMatP= 2.39D-07
 IDIUse=1 WtCom= 1.00D+00 WtEn= 0.00D+00
 Coeff-Com:  0.126D-03-0.216D-03-0.294D-02-0.977D-02-0.202D-01-0.370D-01
 Coeff-Com:  0.253D+00 0.817D+00
 Coeff:      0.126D-03-0.216D-03-0.294D-02-0.977D-02-0.202D-01-0.370D-01
 Coeff:      0.253D+00 0.817D+00
 Gap=     0.323 Goal=   None    Shift=    0.000
 RMSDP=2.17D-06 MaxDP=6.34D-05 DE=-3.26D-07 OVMax= 8.71D-05

 Cycle   9  Pass 1  IDiag  1:
 E= -427.080006832665     Delta-E=       -0.000000039641 Rises=F Damp=F
 DIIS: error= 2.30D-06 at cycle   9 NSaved=   9.
 NSaved= 9 IEnMin= 9 EnMin= -427.080006832665     IErMin= 9 ErrMin= 2.30D-06
 ErrMax= 2.30D-06  0.00D+00 EMaxC= 1.00D-01 BMatC= 2.62D-09 BMatP= 3.21D-08
 IDIUse=1 WtCom= 1.00D+00 WtEn= 0.00D+00
 Coeff-Com:  0.317D-04 0.366D-05-0.358D-04-0.698D-03-0.423D-02-0.206D-01
 Coeff-Com: -0.180D-01 0.197D+00 0.847D+00
 Coeff:      0.317D-04 0.366D-05-0.358D-04-0.698D-03-0.423D-02-0.206D-01
 Coeff:     -0.180D-01 0.197D+00 0.847D+00
 Gap=     0.323 Goal=   None    Shift=    0.000
 RMSDP=6.76D-07 MaxDP=1.51D-05 DE=-3.96D-08 OVMax= 2.66D-05

 Cycle  10  Pass 1  IDiag  1:
 E= -427.080006835389     Delta-E=       -0.000000002724 Rises=F Damp=F
 DIIS: error= 1.23D-06 at cycle  10 NSaved=  10.
 NSaved=10 IEnMin=10 EnMin= -427.080006835389     IErMin=10 ErrMin= 1.23D-06
 ErrMax= 1.23D-06  0.00D+00 EMaxC= 1.00D-01 BMatC= 9.10D-10 BMatP= 2.62D-09
 IDIUse=1 WtCom= 1.00D+00 WtEn= 0.00D+00
 Coeff-Com:  0.105D-05 0.271D-04 0.386D-03 0.895D-03 0.421D-03-0.608D-02
 Coeff-Com: -0.406D-01-0.725D-04 0.455D+00 0.590D+00
 Coeff:      0.105D-05 0.271D-04 0.386D-03 0.895D-03 0.421D-03-0.608D-02
 Coeff:     -0.406D-01-0.725D-04 0.455D+00 0.590D+00
 Gap=     0.323 Goal=   None    Shift=    0.000
 RMSDP=2.42D-07 MaxDP=7.26D-06 DE=-2.72D-09 OVMax= 7.42D-06

 Cycle  11  Pass 1  IDiag  1:
 E= -427.080006836158     Delta-E=       -0.000000000769 Rises=F Damp=F
 DIIS: error= 2.44D-07 at cycle  11 NSaved=  11.
 NSaved=11 IEnMin=11 EnMin= -427.080006836158     IErMin=11 ErrMin= 2.44D-07
 ErrMax= 2.44D-07  0.00D+00 EMaxC= 1.00D-01 BMatC= 2.34D-11 BMatP= 9.10D-10
 IDIUse=1 WtCom= 1.00D+00 WtEn= 0.00D+00
 Coeff-Com: -0.220D-05 0.551D-05 0.105D-03 0.274D-03 0.463D-03 0.380D-03
 Coeff-Com: -0.797D-02-0.194D-01 0.315D-01 0.138D+00 0.857D+00
 Coeff:     -0.220D-05 0.551D-05 0.105D-03 0.274D-03 0.463D-03 0.380D-03
 Coeff:     -0.797D-02-0.194D-01 0.315D-01 0.138D+00 0.857D+00
 Gap=     0.323 Goal=   None    Shift=    0.000
 RMSDP=5.74D-08 MaxDP=1.39D-06 DE=-7.69D-10 OVMax= 2.62D-06

 Cycle  12  Pass 1  IDiag  1:
 E= -427.080006836182     Delta-E=       -0.000000000024 Rises=F Damp=F
 DIIS: error= 9.47D-08 at cycle  12 NSaved=  12.
 NSaved=12 IEnMin=12 EnMin= -427.080006836182     IErMin=12 ErrMin= 9.47D-08
 ErrMax= 9.47D-08  0.00D+00 EMaxC= 1.00D-01 BMatC= 4.33D-12 BMatP= 2.34D-11
 IDIUse=1 WtCom= 1.00D+00 WtEn= 0.00D+00
 Coeff-Com: -0.914D-06 0.391D-06 0.203D-04 0.568D-04 0.167D-03 0.563D-03
 Coeff-Com: -0.779D-03-0.870D-02-0.192D-01 0.142D-01 0.365D+00 0.649D+00
 Coeff:     -0.914D-06 0.391D-06 0.203D-04 0.568D-04 0.167D-03 0.563D-03
 Coeff:     -0.779D-03-0.870D-02-0.192D-01 0.142D-01 0.365D+00 0.649D+00
 Gap=     0.323 Goal=   None    Shift=    0.000
 RMSDP=2.29D-08 MaxDP=8.84D-07 DE=-2.41D-11 OVMax= 9.51D-07

 Cycle  13  Pass 1  IDiag  1:
 E= -427.080006836190     Delta-E=       -0.000000000008 Rises=F Damp=F
 DIIS: error= 2.53D-08 at cycle  13 NSaved=  13.
 NSaved=13 IEnMin=13 EnMin= -427.080006836190     IErMin=13 ErrMin= 2.53D-08
 ErrMax= 2.53D-08  0.00D+00 EMaxC= 1.00D-01 BMatC= 3.89D-13 BMatP= 4.33D-12
 IDIUse=1 WtCom= 1.00D+00 WtEn= 0.00D+00
 Coeff-Com:  0.311D-07-0.748D-06-0.694D-05-0.200D-04-0.103D-04 0.121D-03
 Coeff-Com:  0.940D-03 0.328D-03-0.107D-01-0.183D-01-0.113D-01 0.226D+00
 Coeff-Com:  0.813D+00
 Coeff:      0.311D-07-0.748D-06-0.694D-05-0.200D-04-0.103D-04 0.121D-03
 Coeff:      0.940D-03 0.328D-03-0.107D-01-0.183D-01-0.113D-01 0.226D+00
 Coeff:      0.813D+00
 Gap=     0.323 Goal=   None    Shift=    0.000
 RMSDP=8.74D-09 MaxDP=3.63D-07 DE=-7.50D-12 OVMax= 1.83D-07

 Error on total polarization charges =  0.01939
 SCF Done:  E(RM062X) =  -427.080006836     A.U. after   13 cycles
            NFock= 13  Conv=0.87D-08     -V/T= 2.0087
 KE= 4.233930129139D+02 PE=-1.778853887237D+03 EE= 5.333871257955D+02
 SMD-CDS (non-electrostatic) energy       (kcal/mol) =       0.86
 (included in total energy above)
 Leave Link  502 at Mon May 16 16:57:27 2022, MaxMem=  2147483648 cpu:        98.1
 (Enter /gpfs/runtime/opt/gaussian/g09-D01/g09/l601.exe)
 Copying SCF densities to generalized density rwf, IOpCl= 0 IROHF=0.

 **********************************************************************

            Population analysis using the SCF density.

 **********************************************************************

 Orbital symmetries:
       Occupied  (A) (A) (A) (A) (A) (A) (A) (A) (A) (A) (A) (A)
                 (A) (A) (A) (A) (A) (A) (A) (A) (A) (A) (A) (A)
                 (A) (A) (A) (A) (A) (A) (A)
       Virtual   (A) (A) (A) (A) (A) (A) (A) (A) (A) (A) (A) (A)
                 (A) (A) (A) (A) (A) (A) (A) (A) (A) (A) (A) (A)
                 (A) (A) (A) (A) (A) (A) (A) (A) (A) (A) (A) (A)
                 (A) (A) (A) (A) (A) (A) (A) (A) (A) (A) (A) (A)
                 (A) (A) (A) (A) (A) (A) (A) (A) (A) (A) (A) (A)
                 (A) (A) (A) (A) (A) (A) (A) (A) (A) (A) (A) (A)
                 (A) (A) (A) (A) (A) (A) (A) (A) (A) (A) (A) (A)
                 (A) (A) (A) (A) (A) (A) (A) (A) (A) (A) (A) (A)
                 (A) (A) (A) (A) (A) (A) (A) (A) (A) (A) (A) (A)
                 (A) (A) (A) (A) (A) (A) (A) (A) (A) (A) (A) (A)
                 (A) (A) (A) (A) (A) (A) (A) (A) (A) (A) (A) (A)
                 (A) (A) (A) (A) (A) (A) (A) (A) (A) (A) (A) (A)
                 (A) (A) (A) (A) (A) (A) (A) (A) (A) (A) (A) (A)
                 (A) (A) (A) (A) (A) (A) (A) (A) (A) (A) (A) (A)
                 (A) (A)
 The electronic state is 1-A.
 Alpha  occ. eigenvalues --  -19.71980 -19.71538 -19.64436 -10.74491 -10.63188
 Alpha  occ. eigenvalues --  -10.62043 -10.56070 -10.55148  -2.22903  -1.30052
 Alpha  occ. eigenvalues --   -1.18526  -1.16135  -0.92531  -0.84961  -0.76778
 Alpha  occ. eigenvalues --   -0.70896  -0.66935  -0.61742  -0.60081  -0.59144
 Alpha  occ. eigenvalues --   -0.53192  -0.52178  -0.51576  -0.50319  -0.47415
 Alpha  occ. eigenvalues --   -0.44864  -0.43491  -0.38674  -0.38477  -0.38199
 Alpha  occ. eigenvalues --   -0.34209
 Alpha virt. eigenvalues --   -0.01900   0.00041   0.00322   0.00381   0.01781
 Alpha virt. eigenvalues --    0.02356   0.03635   0.04480   0.04775   0.05387
 Alpha virt. eigenvalues --    0.05448   0.05724   0.06449   0.06844   0.07392
 Alpha virt. eigenvalues --    0.07554   0.07902   0.08957   0.09879   0.10739
 Alpha virt. eigenvalues --    0.11162   0.11966   0.13720   0.14185   0.15500
 Alpha virt. eigenvalues --    0.15892   0.16528   0.16662   0.17173   0.17477
 Alpha virt. eigenvalues --    0.19734   0.20665   0.21672   0.23031   0.23262
 Alpha virt. eigenvalues --    0.23990   0.24675   0.25562   0.25951   0.27309
 Alpha virt. eigenvalues --    0.29013   0.29234   0.29550   0.30382   0.30904
 Alpha virt. eigenvalues --    0.31380   0.32054   0.32940   0.34579   0.36606
 Alpha virt. eigenvalues --    0.38202   0.39813   0.40606   0.42025   0.42601
 Alpha virt. eigenvalues --    0.44319   0.44935   0.46013   0.47725   0.51823
 Alpha virt. eigenvalues --    0.53034   0.55439   0.55810   0.59368   0.63651
 Alpha virt. eigenvalues --    0.65857   0.68773   0.70194   0.73787   0.76386
 Alpha virt. eigenvalues --    0.79628   0.80635   0.80768   0.86212   0.88481
 Alpha virt. eigenvalues --    0.90878   0.91192   0.94096   0.98252   0.99004
 Alpha virt. eigenvalues --    1.02339   1.05403   1.06050   1.09754   1.12073
 Alpha virt. eigenvalues --    1.15265   1.19669   1.21339   1.23797   1.26289
 Alpha virt. eigenvalues --    1.29236   1.29917   1.31826   1.34023   1.35646
 Alpha virt. eigenvalues --    1.38456   1.39274   1.40515   1.43259   1.44609
 Alpha virt. eigenvalues --    1.45134   1.49426   1.49720   1.52308   1.53656
 Alpha virt. eigenvalues --    1.61878   1.65476   1.68933   1.72722   1.75286
 Alpha virt. eigenvalues --    1.80685   1.84926   1.86439   1.88325   1.88929
 Alpha virt. eigenvalues --    1.90654   1.92596   1.95805   1.96607   1.98794
 Alpha virt. eigenvalues --    1.99586   2.03420   2.07421   2.09362   2.13873
 Alpha virt. eigenvalues --    2.15845   2.17593   2.19934   2.25359   2.30410
 Alpha virt. eigenvalues --    2.33000   2.40849   2.44723   2.46380   2.51564
 Alpha virt. eigenvalues --    2.52533   2.55031   2.56344   2.61345   2.62268
 Alpha virt. eigenvalues --    2.64876   2.66808   2.69861   2.72043   2.75116
 Alpha virt. eigenvalues --    2.81333   2.84005   2.87807   2.88374   2.90886
 Alpha virt. eigenvalues --    2.94586   2.96597   3.05061   3.11368   3.24290
 Alpha virt. eigenvalues --    3.25760   3.31018   3.33247   3.40721   3.46213
 Alpha virt. eigenvalues --    3.50563   3.68826   4.20164   4.37009   4.46325
 Alpha virt. eigenvalues --    4.49823   4.60374   4.66036   4.67000   4.78671
          Condensed to atoms (all electrons):
               1          2          3          4          5          6
     1  C    5.415070  -0.094200   0.237802   0.025832  -0.013347  -0.002963
     2  C   -0.094200   6.216810  -0.210294  -0.088954  -0.007857  -0.016805
     3  C    0.237802  -0.210294   5.875305   0.413010  -0.085268  -0.023607
     4  H    0.025832  -0.088954   0.413010   0.473733  -0.029350   0.002201
     5  C   -0.013347  -0.007857  -0.085268  -0.029350   5.615761   0.117156
     6  O   -0.002963  -0.016805  -0.023607   0.002201   0.117156   8.388707
     7  C   -0.030735   0.094663  -0.180088   0.009429  -0.131561   0.247803
     8  O   -0.000827   0.008863  -0.018010  -0.000428   0.030311  -0.109298
     9  O   -0.004627  -0.148666   0.306851  -0.028519  -0.130686  -0.148630
    10  H    0.407525  -0.054658   0.011471   0.000240  -0.001572   0.000052
    11  H    0.433792  -0.090397   0.006299   0.002373   0.004690  -0.000095
    12  H    0.022531   0.299893   0.011588   0.002290  -0.006368  -0.000189
    13  H    0.008976  -0.008301  -0.018749  -0.004923   0.387824  -0.034766
    14  H   -0.020493   0.055233  -0.140757   0.002885   0.451268  -0.035322
    15  Li  -0.000458  -0.017526   0.010190   0.000698  -0.009462  -0.000608
               7          8          9         10         11         12
     1  C   -0.030735  -0.000827  -0.004627   0.407525   0.433792   0.022531
     2  C    0.094663   0.008863  -0.148666  -0.054658  -0.090397   0.299893
     3  C   -0.180088  -0.018010   0.306851   0.011471   0.006299   0.011588
     4  H    0.009429  -0.000428  -0.028519   0.000240   0.002373   0.002290
     5  C   -0.131561   0.030311  -0.130686  -0.001572   0.004690  -0.006368
     6  O    0.247803  -0.109298  -0.148630   0.000052  -0.000095  -0.000189
     7  C    4.546045   0.503865   0.155211   0.000131  -0.000129  -0.002919
     8  O    0.503865   8.252267  -0.103948  -0.000004   0.000002  -0.000065
     9  O    0.155211  -0.103948   8.436433   0.000253   0.000491   0.003752
    10  H    0.000131  -0.000004   0.000253   0.474311  -0.022964  -0.004383
    11  H   -0.000129   0.000002   0.000491  -0.022964   0.475935   0.003269
    12  H   -0.002919  -0.000065   0.003752  -0.004383   0.003269   0.462924
    13  H    0.003530  -0.000458   0.004609   0.000005  -0.000037  -0.000007
    14  H    0.015930  -0.000354   0.004583  -0.000027   0.000052   0.001082
    15  Li   0.001010  -0.004224   0.011799   0.000434   0.000413   0.001055
              13         14         15
     1  C    0.008976  -0.020493  -0.000458
     2  C   -0.008301   0.055233  -0.017526
     3  C   -0.018749  -0.140757   0.010190
     4  H   -0.004923   0.002885   0.000698
     5  C    0.387824   0.451268  -0.009462
     6  O   -0.034766  -0.035322  -0.000608
     7  C    0.003530   0.015930   0.001010
     8  O   -0.000458  -0.000354  -0.004224
     9  O    0.004609   0.004583   0.011799
    10  H    0.000005  -0.000027   0.000434
    11  H   -0.000037   0.000052   0.000413
    12  H   -0.000007   0.001082   0.001055
    13  H    0.469291  -0.029100   0.000056
    14  H   -0.029100   0.478963  -0.000302
    15  Li   0.000056  -0.000302   2.004474
 Mulliken charges:
               1
     1  C   -0.383878
     2  C    0.062195
     3  C   -0.195742
     4  H    0.219483
     5  C   -0.191539
     6  O   -0.383635
     7  C    0.767816
     8  O   -0.557692
     9  O   -0.358907
    10  H    0.189185
    11  H    0.186306
    12  H    0.205547
    13  H    0.222052
    14  H    0.216357
    15  Li   1.002450
 Sum of Mulliken charges =   1.00000
 Mulliken charges with hydrogens summed into heavy atoms:
               1
     1  C   -0.008386
     2  C    0.267742
     3  C    0.023742
     5  C    0.246870
     6  O   -0.383635
     7  C    0.767816
     8  O   -0.557692
     9  O   -0.358907
    15  Li   1.002450
 Electronic spatial extent (au):  <R**2>=           1089.9967
 Charge=              1.0000 electrons
 Dipole moment (field-independent basis, Debye):
    X=            -11.4964    Y=             12.9571    Z=              1.2409  Tot=             17.3665
 Quadrupole moment (field-independent basis, Debye-Ang):
   XX=            -50.9772   YY=             15.2188   ZZ=            -42.4880
   XY=            -20.1643   XZ=              1.2940   YZ=             -0.9993
 Traceless Quadrupole moment (field-independent basis, Debye-Ang):
   XX=            -24.8951   YY=             41.3009   ZZ=            -16.4059
   XY=            -20.1643   XZ=              1.2940   YZ=             -0.9993
 Octapole moment (field-independent basis, Debye-Ang**2):
  XXX=            -55.9489  YYY=            241.1486  ZZZ=              1.8385  XYY=            -66.8994
  XXY=             17.7406  XXZ=              4.7933  XZZ=             -3.6597  YZZ=              4.4229
  YYZ=              5.1329  XYZ=              0.2731
 Hexadecapole moment (field-independent basis, Debye-Ang**3):
 XXXX=           -957.0165 YYYY=            575.7234 ZZZZ=            -86.8603 XXXY=            -71.4786
 XXXZ=             15.6813 YYYX=           -261.2942 YYYZ=              6.9567 ZZZX=             -1.8522
 ZZZY=             -1.5523 XXYY=           -170.2000 XXZZ=           -158.2919 YYZZ=            -60.4619
 XXYZ=             -1.4753 YYXZ=             -2.3249 ZZXY=             -7.1335
 N-N= 3.949937416912D+02 E-N=-1.778853890712D+03  KE= 4.233930129139D+02
 No NMR shielding tensors so no spin-rotation constants.
 Leave Link  601 at Mon May 16 16:57:27 2022, MaxMem=  2147483648 cpu:         2.4
 (Enter /gpfs/runtime/opt/gaussian/g09-D01/g09/l701.exe)
 Compute integral first derivatives.
 ... and contract with generalized density number  0.
 R6Disp: Adding Grimme-D3 dispersion energy 1st derivatives to the gradient.
 D1PCM: PCM CHGder 1st derivatives, ID1Alg=3 FixD1E=F DoIter=F DoCFld=F I1PDM=0.
 GePol: Maximum number of non-zero 1st derivatives   =     315
 Leave Link  701 at Mon May 16 16:57:29 2022, MaxMem=  2147483648 cpu:         9.2
 (Enter /gpfs/runtime/opt/gaussian/g09-D01/g09/l702.exe)
 L702 exits ... SP integral derivatives will be done elsewhere.
 Leave Link  702 at Mon May 16 16:57:29 2022, MaxMem=  2147483648 cpu:         0.1
 (Enter /gpfs/runtime/opt/gaussian/g09-D01/g09/l703.exe)
 Compute integral first derivatives, UseDBF=F ICtDFT=           0.
 Integral derivatives from FoFJK, PRISM(SPDF).
 Calling FoFJK, ICntrl=      2127 FMM=F ISym2X=0 I1Cent= 0 IOpClX= 0 NMat=1 NMatS=1 NMatT=0.
 FoFJK:  IHMeth= 1 ICntrl=    2127 DoSepK=F KAlg= 0 I1Cent=   0 FoldK=F
 IRaf=         0 NMat=   1 IRICut=       1 DoRegI=T DoRafI=F ISym2E= 0.
 FoFCou: FMM=F IPFlag=           0 FMFlag=      100000 FMFlg1=         800
         NFxFlg=           0 DoJE=F BraDBF=F KetDBF=F FulRan=T
         wScrn=  0.000000 ICntrl=    2127 IOpCl=  0 I1Cent=           0 NGrid=           0
         NMat0=    1 NMatS0=      1 NMatT0=    0 NMatD0=    1 NMtDS0=    0 NMtDT0=    0
 Symmetry not used in FoFCou.
 Leave Link  703 at Mon May 16 16:57:31 2022, MaxMem=  2147483648 cpu:        19.6
 (Enter /gpfs/runtime/opt/gaussian/g09-D01/g09/l716.exe)
 Dipole        =-4.52304338D+00 5.09771382D+00 4.88196677D-01
 ***** Axes restored to original set *****
 -------------------------------------------------------------------
 Center     Atomic                   Forces (Hartrees/Bohr)
 Number     Number              X              Y              Z
 -------------------------------------------------------------------
      1        6           0.020266884    0.003772761   -0.003554585
      2        6          -0.022563012    0.004604051   -0.008101651
      3        6           0.006427587   -0.004270483    0.016551184
      4        1          -0.002721814    0.006102954   -0.001615407
      5        6          -0.005557789    0.006735113   -0.003744378
      6        8           0.018318946   -0.000067891   -0.004734840
      7        6          -0.030414077    0.012469268    0.005267213
      8        8           0.016558522   -0.008306329   -0.002263500
      9        8           0.007675075   -0.013916921   -0.002367780
     10        1           0.006151642   -0.000346716   -0.000210204
     11        1           0.005182635    0.001113885   -0.004688448
     12        1          -0.007520344   -0.001449033    0.005297257
     13        1          -0.005498289   -0.001951264    0.001668867
     14        1          -0.005901165   -0.002307050    0.002370205
     15        3          -0.000404799   -0.002182342    0.000126066
 -------------------------------------------------------------------
 Cartesian Forces:  Max     0.030414077 RMS     0.009237181
 Leave Link  716 at Mon May 16 16:57:31 2022, MaxMem=  2147483648 cpu:         0.2
 (Enter /gpfs/runtime/opt/gaussian/g09-D01/g09/l103.exe)

 GradGradGradGradGradGradGradGradGradGradGradGradGradGradGradGradGradGrad
 Berny optimization.
 FormGI is forming the generalized inverse of G from B-inverse, IUseBI=4.
 Internal  Forces:  Max     0.032920847 RMS     0.005991360
 Search for a local minimum.
 Step number   1 out of a maximum of   84
 All quantities printed in internal units (Hartrees-Bohrs-Radians)
 RMS Force = .59914D-02 SwitMx=.10000D-02 MixMth= 1
 Mixed Optimization -- RFO/linear search
 Second derivative matrix not updated -- first step.
 ITU=  0
     Eigenvalues ---    0.00551   0.00674   0.01402   0.01693   0.01716
     Eigenvalues ---    0.02212   0.02496   0.03279   0.03279   0.04605
     Eigenvalues ---    0.05102   0.05373   0.05951   0.06594   0.10457
     Eigenvalues ---    0.10700   0.13666   0.16000   0.16000   0.16000
     Eigenvalues ---    0.20271   0.22000   0.22069   0.24683   0.25000
     Eigenvalues ---    0.27790   0.31658   0.34803   0.34807   0.34819
     Eigenvalues ---    0.35056   0.35989   0.35994   0.36002   0.37094
     Eigenvalues ---    0.53015   0.56027   0.64487   0.97952
 RFO step:  Lambda=-9.26816195D-03 EMin= 5.50908613D-03
 Linear search not attempted -- first point.
 Iteration  1 RMS(Cart)=  0.05738707 RMS(Int)=  0.00145367
 Iteration  2 RMS(Cart)=  0.00171444 RMS(Int)=  0.00063916
 Iteration  3 RMS(Cart)=  0.00000188 RMS(Int)=  0.00063916
 Iteration  4 RMS(Cart)=  0.00000000 RMS(Int)=  0.00063916
 ITry= 1 IFail=0 DXMaxC= 1.97D-01 DCOld= 1.00D+10 DXMaxT= 3.00D-01 DXLimC= 3.00D+00 Rises=F
 Variable       Old X    -DE/DX   Delta X   Delta X   Delta X     New X
                                 (Linear)    (Quad)   (Total)
    R1        2.47557   0.03292   0.00000   0.05033   0.05033   2.52590
    R2        2.04091   0.00432   0.00000   0.01170   0.01170   2.05260
    R3        2.04078   0.00553   0.00000   0.01496   0.01496   2.05574
    R4        2.84773  -0.00453   0.00000  -0.01391  -0.01391   2.83383
    R5        2.04099   0.00655   0.00000   0.01774   0.01774   2.05873
    R6        2.05990   0.00040   0.00000   0.00112   0.00112   2.06102
    R7        2.91175   0.00316   0.00000   0.01244   0.01218   2.92394
    R8        2.75415  -0.00674   0.00000  -0.01614  -0.01622   2.73793
    R9        2.75416  -0.01136   0.00000  -0.03058  -0.03063   2.72353
   R10        2.05996  -0.00031   0.00000  -0.00087  -0.00087   2.05909
   R11        2.05970   0.00033   0.00000   0.00093   0.00093   2.06063
   R12        2.52699  -0.00276   0.00000  -0.00584  -0.00561   2.52138
   R13        2.29470  -0.01865   0.00000  -0.01886  -0.01886   2.27584
   R14        2.53254   0.00177   0.00000   0.00277   0.00297   2.53551
   R15        6.06793  -0.00217   0.00000  -0.09340  -0.09340   5.97453
    A1        2.09433   0.00268   0.00000   0.01584   0.01580   2.11013
    A2        2.09445   0.00312   0.00000   0.01843   0.01839   2.11284
    A3        2.09440  -0.00581   0.00000  -0.03433  -0.03437   2.06003
    A4        2.09438   0.00917   0.00000   0.03998   0.03982   2.13420
    A5        2.09445   0.00214   0.00000   0.01971   0.01953   2.11398
    A6        2.09435  -0.01130   0.00000  -0.05969  -0.05983   2.03453
    A7        1.92837  -0.00236   0.00000  -0.00030  -0.00303   1.92534
    A8        1.92932   0.00830   0.00000   0.06327   0.06275   1.99206
    A9        1.92939  -0.00112   0.00000  -0.01637  -0.01604   1.91335
   A10        1.92930   0.00197   0.00000   0.02824   0.02653   1.95583
   A11        1.92927  -0.00091   0.00000  -0.05030  -0.05008   1.87919
   A12        1.81553  -0.00594   0.00000  -0.02555  -0.02541   1.79013
   A13        1.81335   0.00122   0.00000   0.00520   0.00505   1.81841
   A14        1.92933   0.00445   0.00000   0.04004   0.03940   1.96873
   A15        1.92936   0.00437   0.00000   0.04312   0.04248   1.97184
   A16        1.92922  -0.00388   0.00000  -0.04363  -0.04378   1.88544
   A17        1.92940  -0.00461   0.00000  -0.04587  -0.04578   1.88362
   A18        1.93028  -0.00138   0.00000   0.00127  -0.00164   1.92864
   A19        1.90554   0.00626   0.00000   0.02241   0.02232   1.92786
   A20        2.14810   0.00533   0.00000   0.02076   0.02067   2.16877
   A21        1.98773  -0.00941   0.00000  -0.03668  -0.03653   1.95121
   A22        2.14735   0.00408   0.00000   0.01593   0.01584   2.16319
   A23        1.90262   0.00787   0.00000   0.03461   0.03450   1.93712
   A24        1.96423  -0.00538   0.00000  -0.02131  -0.02120   1.94304
   A25        2.34123  -0.00229   0.00000  -0.01302  -0.01302   2.32820
    D1        3.14157   0.00168   0.00000   0.04626   0.04669  -3.09493
    D2        0.00000   0.00080   0.00000   0.01285   0.01242   0.01242
    D3       -0.00484   0.00101   0.00000   0.03028   0.03071   0.02587
    D4        3.13677   0.00013   0.00000  -0.00313  -0.00356   3.13321
    D5       -0.01224  -0.00361   0.00000  -0.05537  -0.05495  -0.06719
    D6        2.12900   0.00296   0.00000   0.02354   0.02405   2.15304
    D7       -2.15350  -0.00007   0.00000   0.01984   0.01982  -2.13368
    D8        3.12933  -0.00273   0.00000  -0.02196  -0.02215   3.10718
    D9       -1.01261   0.00385   0.00000   0.05694   0.05685  -0.95577
   D10        0.98808   0.00081   0.00000   0.05324   0.05262   1.04069
   D11        2.07010  -0.00186   0.00000  -0.00937  -0.00986   2.06024
   D12       -2.14319  -0.00357   0.00000  -0.03818  -0.03935  -2.18254
   D13       -0.00002   0.00073   0.00000   0.02058   0.02049   0.02047
   D14       -2.07238   0.00219   0.00000   0.05295   0.05385  -2.01853
   D15       -0.00249   0.00048   0.00000   0.02414   0.02436   0.02187
   D16        2.14068   0.00479   0.00000   0.08290   0.08420   2.22488
   D17       -0.00122  -0.00127   0.00000  -0.00671  -0.00658  -0.00779
   D18        2.06868  -0.00297   0.00000  -0.03552  -0.03607   2.03261
   D19       -2.07134   0.00133   0.00000   0.02324   0.02377  -2.04757
   D20       -2.06910  -0.00425   0.00000  -0.04386  -0.04343  -2.11253
   D21        0.72603  -0.00432   0.00000  -0.04617  -0.04586   0.68017
   D22        2.07336   0.00013   0.00000   0.00220   0.00241   2.07577
   D23       -1.41470   0.00006   0.00000  -0.00011  -0.00002  -1.41472
   D24        0.00217   0.00161   0.00000   0.00805   0.00799   0.01015
   D25        2.79730   0.00154   0.00000   0.00574   0.00556   2.80285
   D26       -0.00011   0.00054   0.00000   0.00335   0.00337   0.00326
   D27       -2.07007  -0.00347   0.00000  -0.02534  -0.02408  -2.09415
   D28        2.06999   0.00411   0.00000   0.03455   0.03341   2.10340
   D29       -3.14092  -0.00022   0.00000   0.00747   0.00746  -3.13346
   D30        0.00159   0.00049   0.00000   0.00176   0.00161   0.00321
   D31       -0.00245  -0.00139   0.00000  -0.00653  -0.00646  -0.00891
   D32       -2.69173  -0.00129   0.00000  -0.00526  -0.00511  -2.69684
   D33        3.14007  -0.00068   0.00000  -0.01224  -0.01229   3.12778
   D34        0.45078  -0.00059   0.00000  -0.01097  -0.01094   0.43984
         Item               Value     Threshold  Converged?
 Maximum Force            0.032921     0.000450     NO 
 RMS     Force            0.005991     0.000300     NO 
 Maximum Displacement     0.197206     0.001800     NO 
 RMS     Displacement     0.057005     0.001200     NO 
 Predicted change in Energy=-5.010733D-03
 Lowest energy point so far.  Saving SCF results.
 GradGradGradGradGradGradGradGradGradGradGradGradGradGradGradGradGradGrad

 Leave Link  103 at Mon May 16 16:57:35 2022, MaxMem=  2147483648 cpu:        21.3
 (Enter /gpfs/runtime/opt/gaussian/g09-D01/g09/l202.exe)
                          Input orientation:                          
 ---------------------------------------------------------------------
 Center     Atomic      Atomic             Coordinates (Angstroms)
 Number     Number       Type             X           Y           Z
 ---------------------------------------------------------------------
      1          6           0        3.151730    0.470328    0.054179
      2          6           0        1.903901    0.249254    0.479237
      3          6           0        0.792319   -0.119548   -0.457332
      4          1           0        1.145924   -0.105059   -1.488964
      5          6           0        0.082703   -1.448562   -0.104844
      6          8           0       -1.278537   -1.060887    0.166972
      7          6           0       -1.427075    0.256552    0.016852
      8          8           0       -2.462703    0.846231    0.190495
      9          8           0       -0.279324    0.849149   -0.346119
     10          1           0        3.949058    0.694035    0.757055
     11          1           0        3.403069    0.412827   -1.002675
     12          1           0        1.652623    0.298947    1.538127
     13          1           0        0.072902   -2.154948   -0.934427
     14          1           0        0.483146   -1.919762    0.793306
     15          3           0        0.852165    3.782043   -0.009261
 ---------------------------------------------------------------------
                    Distance matrix (angstroms):
                    1          2          3          4          5
     1  C    0.000000
     2  C    1.336647   0.000000
     3  C    2.485240   1.499596   0.000000
     4  H    2.595307   2.138663   1.090647   0.000000
     5  C    3.623032   2.557439   1.547282   2.202550   0.000000
     6  O    4.688775   3.455704   2.358881   3.087676   1.441232
     7  C    4.583945   3.362923   2.300438   3.003093   2.280713
     8  O    5.628655   4.416671   3.456528   4.092399   3.439824
     9  O    3.475036   2.409887   1.448848   2.061052   2.338536
    10  H    1.086191   2.111323   3.478743   3.679771   4.503587
    11  H    1.087850   2.114314   2.719712   2.366302   3.910972
    12  H    2.116317   1.089431   2.212944   3.095682   2.866669
    13  H    4.165165   3.336344   2.210889   2.379272   1.089626
    14  H    3.657893   2.611861   2.213697   2.990180   1.090439
    15  Li   4.032305   3.718249   3.927692   4.169577   5.287763
                    6          7          8          9         10
     6  O    0.000000
     7  C    1.334258   0.000000
     8  O    2.244972   1.204325   0.000000
     9  O    2.215835   1.341735   2.248357   0.000000
    10  H    5.545782   5.444456   6.438543   4.372673   0.000000
    11  H    5.045526   4.939043   6.001564   3.765827   1.863822
    12  H    3.510116   3.435203   4.364807   2.754183   2.457597
    13  H    2.058261   2.995028   4.086786   3.081358   5.099255
    14  H    2.057544   2.998027   4.085600   3.089744   4.341175
    15  Li   5.293857   4.198179   4.432521   3.161583   4.440021
                   11         12         13         14         15
    11  H    0.000000
    12  H    3.087508   0.000000
    13  H    4.205727   3.825002   0.000000
    14  H    4.146380   2.616316   1.791277   0.000000
    15  Li   4.341151   3.894496   6.058964   5.769824   0.000000
 Stoichiometry    C5H6LiO3(1+)
 Framework group  C1[X(C5H6LiO3)]
 Deg. of freedom    39
 Full point group                 C1      NOp   1
 RotChk:  IX=0 Diff= 3.47D-02
 Largest Abelian subgroup         C1      NOp   1
 Largest concise Abelian subgroup C1      NOp   1
                         Standard orientation:                         
 ---------------------------------------------------------------------
 Center     Atomic      Atomic             Coordinates (Angstroms)
 Number     Number       Type             X           Y           Z
 ---------------------------------------------------------------------
      1          6           0       -3.038584   -0.034702   -0.055328
      2          6           0       -1.774382   -0.107889   -0.483186
      3          6           0       -0.626646   -0.358325    0.448894
      4          1           0       -0.978001   -0.395470    1.480727
      5          6           0        0.228795   -1.594154    0.081431
      6          8           0        1.536761   -1.051376   -0.186456
      7          6           0        1.534921    0.272673   -0.021730
      8          8           0        2.496591    0.978063   -0.189106
      9          8           0        0.327850    0.727009    0.348150
     10          1           0       -3.857256    0.104712   -0.755436
     11          1           0       -3.280118   -0.132027    1.000895
     12          1           0       -1.532024   -0.018305   -1.541532
     13          1           0        0.320063   -2.303954    0.903100
     14          1           0       -0.116929   -2.097868   -0.821788
     15          3           0       -1.129993    3.515910    0.044280
 ---------------------------------------------------------------------
 Rotational constants (GHZ):      2.7077622      1.3466717      0.9540500
 Leave Link  202 at Mon May 16 16:57:35 2022, MaxMem=  2147483648 cpu:         0.2
 (Enter /gpfs/runtime/opt/gaussian/g09-D01/g09/l301.exe)
 Standard basis: 6-31+G(d,p) (6D, 7F)
 Ernie: Thresh=  0.10000D-02 Tol=  0.10000D-05 Strict=F.
 There are   201 symmetry adapted cartesian basis functions of A   symmetry.
 There are   201 symmetry adapted basis functions of A   symmetry.
   201 basis functions,   330 primitive gaussians,   201 cartesian basis functions
    31 alpha electrons       31 beta electrons
       nuclear repulsion energy       394.9031834834 Hartrees.
 IExCor= 4336 DFT=T Ex+Corr=M062X ExCW=0 ScaHFX=  0.540000
 ScaDFX=  1.000000  1.000000  1.000000  1.000000 ScalE2=  1.000000  1.000000
 IRadAn=      0 IRanWt=     -1 IRanGd=            0 ICorTp=0 IEmpDi=131
 NAtoms=   15 NActive=   15 NUniq=   15 SFac= 1.00D+00 NAtFMM=   60 NAOKFM=F Big=F
 Integral buffers will be    131072 words long.
 Raffenetti 2 integral format.
 Two-electron integral symmetry is turned on.
 R6Disp:  Grimme-D3 Dispersion energy=       -0.0004602710 Hartrees.
 Nuclear repulsion after empirical dispersion term =      394.9027232124 Hartrees.
 ------------------------------------------------------------------------------
 Polarizable Continuum Model (PCM)
 =================================
 Model                : PCM (using non-symmetric T matrix).
 Atomic radii         : SMD-Coulomb.
 Polarization charges : Total charges.
 Charge compensation  : None.
 Solution method      : On-the-fly selection.
 Cavity type          : VdW (van der Waals Surface) (Alpha=1.000).
 Cavity algorithm     : GePol (No added spheres)
                        Default sphere list used, NSphG=   15.
                        Lebedev-Laikov grids with approx.  5.0 points / Ang**2.
                        Smoothing algorithm: Karplus/York (Gamma=1.0000).
                        Polarization charges: spherical gaussians, with
                                              point-specific exponents (IZeta= 3).
                        Self-potential: point-specific (ISelfS= 7).
                        Self-field    : sphere-specific E.n sum rule (ISelfD= 2).
 1st derivatives      : Analytical E(r).r(x)/FMM algorithm (CHGder, D1EAlg=3).
                        Cavity 1st derivative terms included.
 Solvent              : DiMethylSulfoxide, Eps=  46.826000 Eps(inf)=   2.007889
 ------------------------------------------------------------------------------
 Spheres list:
 ISph  on   Nord     Re0    Alpha      Xe            Ye            Ze
    1   C      1    1.8500  1.000     -3.038584     -0.034702     -0.055328
    2   C      2    1.8500  1.000     -1.774382     -0.107889     -0.483186
    3   C      3    1.8500  1.000     -0.626646     -0.358325      0.448894
    4   H      4    1.2000  1.000     -0.978001     -0.395470      1.480727
    5   C      5    1.8500  1.000      0.228795     -1.594154      0.081431
    6   O      6    2.2940  1.000      1.536761     -1.051376     -0.186456
    7   C      7    1.8500  1.000      1.534921      0.272673     -0.021730
    8   O      8    2.2940  1.000      2.496591      0.978063     -0.189106
    9   O      9    2.2940  1.000      0.327850      0.727009      0.348150
   10   H     10    1.2000  1.000     -3.857256      0.104712     -0.755436
   11   H     11    1.2000  1.000     -3.280118     -0.132027      1.000895
   12   H     12    1.2000  1.000     -1.532024     -0.018305     -1.541532
   13   H     13    1.2000  1.000      0.320063     -2.303954      0.903100
   14   H     14    1.2000  1.000     -0.116929     -2.097868     -0.821788
   15  Li     15    1.8200  1.000     -1.129993      3.515910      0.044280
 ------------------------------------------------------------------------------
 GePol: Number of generator spheres                  =      15
 GePol: Total number of spheres                      =      15
 GePol: Number of exposed spheres                    =      15 (100.00%)
 GePol: Number of points                             =    1569
 GePol: Average weight of points                     =       0.13
 GePol: Minimum weight of points                     =   0.31D-09
 GePol: Maximum weight of points                     =    0.17992
 GePol: Number of points with low weight             =      46
 GePol: Fraction of low-weight points (<1% of avg)   =       2.93%
 GePol: Cavity surface area                          =    196.243 Ang**2
 GePol: Cavity volume                                =    179.764 Ang**3
 ------------------------------------------------------------------------------
 Atomic radii for non-electrostatic terms: SMD-CDS.
 ------------------------------------------------------------------------------
 PCM non-electrostatic energy =         0.0013265850 Hartrees.
 Nuclear repulsion after PCM non-electrostatic terms =      394.9040497974 Hartrees.
 Leave Link  301 at Mon May 16 16:57:35 2022, MaxMem=  2147483648 cpu:         0.6
 (Enter /gpfs/runtime/opt/gaussian/g09-D01/g09/l302.exe)
 NPDir=0 NMtPBC=     1 NCelOv=     1 NCel=       1 NClECP=     1 NCelD=      1
         NCelK=      1 NCelE2=     1 NClLst=     1 CellRange=     0.0.
 One-electron integrals computed using PRISM.
 NBasis=   201 RedAO= T EigKep=  2.83D-05  NBF=   201
 NBsUse=   201 1.00D-06 EigRej= -1.00D+00 NBFU=   201
 Precomputing XC quadrature grid using
 IXCGrd= 4 IRadAn=           0 IRanWt=          -1 IRanGd=           0 AccXCQ= 0.00D+00.
 Generated NRdTot=       0 NPtTot=           0 NUsed=           0 NTot=          32
 NSgBfM=   201   201   201   201   201 MxSgAt=    15 MxSgA2=    15.
 Leave Link  302 at Mon May 16 16:57:35 2022, MaxMem=  2147483648 cpu:         4.0
 (Enter /gpfs/runtime/opt/gaussian/g09-D01/g09/l303.exe)
 DipDrv:  MaxL=1.
 Leave Link  303 at Mon May 16 16:57:36 2022, MaxMem=  2147483648 cpu:         0.8
 (Enter /gpfs/runtime/opt/gaussian/g09-D01/g09/l401.exe)
 Initial guess from the checkpoint file:  "/gpfs/data/yqi27/cgu13/CHEM1560Q/Gaussian/4427-96-7/inp2/Gau-97856.chk"
 B after Tr=     0.000000    0.000000    0.000000
         Rot=    0.999926   -0.003338    0.000294   -0.011734 Ang=  -1.40 deg.
 Guess basis will be translated and rotated to current coordinates.
 JPrj=2 DoOrth=T DoCkMO=T.
 Generating alternative initial guess.
 ExpMin= 7.40D-03 ExpMax= 5.48D+03 ExpMxC= 8.25D+02 IAcc=3 IRadAn=         5 AccDes= 0.00D+00
 Harris functional with IExCor= 1009 and IRadAn=       5 diagonalized for initial guess.
 HarFok:  IExCor= 1009 AccDes= 0.00D+00 IRadAn=         5 IDoV= 1 UseB2=F ITyADJ=14
 ICtDFT=  3500011 ScaDFX=  1.000000  1.000000  1.000000  1.000000
 FoFCou: FMM=F IPFlag=           0 FMFlag=      100000 FMFlg1=           0
         NFxFlg=           0 DoJE=T BraDBF=F KetDBF=T FulRan=T
         wScrn=  0.000000 ICntrl=     500 IOpCl=  0 I1Cent=   200000004 NGrid=           0
         NMat0=    1 NMatS0=      1 NMatT0=    0 NMatD0=    1 NMtDS0=    0 NMtDT0=    0
 Petite list used in FoFCou.
 Harris En= -426.791609260343    
 Leave Link  401 at Mon May 16 16:57:38 2022, MaxMem=  2147483648 cpu:        14.1
 (Enter /gpfs/runtime/opt/gaussian/g09-D01/g09/l502.exe)
 Closed shell SCF:
 Using DIIS extrapolation, IDIIS=  1040.
 Integral symmetry usage will be decided dynamically.
 Keep R1 ints in memory in canonical form, NReq=211996292.
 IVT=      142861 IEndB=      142861 NGot=  2147483648 MDV=  1941265337
 LenX=  1941265337 LenY=  1941224495
 Requested convergence on RMS density matrix=1.00D-08 within 128 cycles.
 Requested convergence on MAX density matrix=1.00D-06.
 Requested convergence on             energy=1.00D-06.
 No special actions if energy rises.
 FoFCou: FMM=F IPFlag=           0 FMFlag=           0 FMFlg1=           0
         NFxFlg=           0 DoJE=F BraDBF=F KetDBF=F FulRan=T
         wScrn=  0.000000 ICntrl=     600 IOpCl=  0 I1Cent=           0 NGrid=           0
         NMat0=    1 NMatS0=  20301 NMatT0=    0 NMatD0=    1 NMtDS0=    0 NMtDT0=    0
 Symmetry not used in FoFCou.

 Cycle   1  Pass 1  IDiag  1:
 Inv3:  Mode=1 IEnd=     7385283.
 Iteration    1 A*A^-1 deviation from unit magnitude is 6.22D-15 for    547.
 Iteration    1 A*A^-1 deviation from orthogonality  is 4.47D-15 for   1205    155.
 Iteration    1 A^-1*A deviation from unit magnitude is 5.66D-15 for    242.
 Iteration    1 A^-1*A deviation from orthogonality  is 2.08D-13 for   1272   1205.
 E= -427.081817446182    
 DIIS: error= 1.51D-03 at cycle   1 NSaved=   1.
 NSaved= 1 IEnMin= 1 EnMin= -427.081817446182     IErMin= 1 ErrMin= 1.51D-03
 ErrMax= 1.51D-03  0.00D+00 EMaxC= 1.00D-01 BMatC= 1.86D-03 BMatP= 1.86D-03
 IDIUse=3 WtCom= 9.85D-01 WtEn= 1.51D-02
 Coeff-Com:  0.100D+01
 Coeff-En:   0.100D+01
 Coeff:      0.100D+01
 Gap=     0.610 Goal=   None    Shift=    0.000
 GapD=    0.610 DampG=2.000 DampE=1.000 DampFc=2.0000 IDamp=-1.
 RMSDP=1.03D-03 MaxDP=5.25D-02              OVMax= 1.22D-02

 Cycle   2  Pass 1  IDiag  1:
 E= -427.084658991913     Delta-E=       -0.002841545731 Rises=F Damp=F
 DIIS: error= 3.58D-04 at cycle   2 NSaved=   2.
 NSaved= 2 IEnMin= 2 EnMin= -427.084658991913     IErMin= 2 ErrMin= 3.58D-04
 ErrMax= 3.58D-04  0.00D+00 EMaxC= 1.00D-01 BMatC= 1.31D-04 BMatP= 1.86D-03
 IDIUse=3 WtCom= 9.96D-01 WtEn= 3.58D-03
 Coeff-Com:  0.321D-02 0.997D+00
 Coeff-En:   0.000D+00 0.100D+01
 Coeff:      0.320D-02 0.997D+00
 Gap=     0.323 Goal=   None    Shift=    0.000
 RMSDP=1.75D-04 MaxDP=5.35D-03 DE=-2.84D-03 OVMax= 4.10D-03

 Cycle   3  Pass 1  IDiag  1:
 E= -427.084766773783     Delta-E=       -0.000107781870 Rises=F Damp=F
 DIIS: error= 3.46D-04 at cycle   3 NSaved=   3.
 NSaved= 3 IEnMin= 3 EnMin= -427.084766773783     IErMin= 3 ErrMin= 3.46D-04
 ErrMax= 3.46D-04  0.00D+00 EMaxC= 1.00D-01 BMatC= 1.01D-04 BMatP= 1.31D-04
 IDIUse=3 WtCom= 9.97D-01 WtEn= 3.46D-03
 Coeff-Com: -0.645D-01 0.491D+00 0.573D+00
 Coeff-En:   0.000D+00 0.431D-01 0.957D+00
 Coeff:     -0.643D-01 0.490D+00 0.575D+00
 Gap=     0.321 Goal=   None    Shift=    0.000
 RMSDP=6.79D-05 MaxDP=2.08D-03 DE=-1.08D-04 OVMax= 2.58D-03

 Cycle   4  Pass 1  IDiag  1:
 E= -427.084844046409     Delta-E=       -0.000077272626 Rises=F Damp=F
 DIIS: error= 1.07D-04 at cycle   4 NSaved=   4.
 NSaved= 4 IEnMin= 4 EnMin= -427.084844046409     IErMin= 4 ErrMin= 1.07D-04
 ErrMax= 1.07D-04  0.00D+00 EMaxC= 1.00D-01 BMatC= 7.98D-06 BMatP= 1.01D-04
 IDIUse=3 WtCom= 9.99D-01 WtEn= 1.07D-03
 Coeff-Com: -0.270D-01 0.105D+00 0.257D+00 0.666D+00
 Coeff-En:   0.000D+00 0.000D+00 0.000D+00 0.100D+01
 Coeff:     -0.270D-01 0.104D+00 0.256D+00 0.666D+00
 Gap=     0.321 Goal=   None    Shift=    0.000
 RMSDP=2.65D-05 MaxDP=1.18D-03 DE=-7.73D-05 OVMax= 7.68D-04

 Cycle   5  Pass 1  IDiag  1:
 E= -427.084850399481     Delta-E=       -0.000006353072 Rises=F Damp=F
 DIIS: error= 2.85D-05 at cycle   5 NSaved=   5.
 NSaved= 5 IEnMin= 5 EnMin= -427.084850399481     IErMin= 5 ErrMin= 2.85D-05
 ErrMax= 2.85D-05  0.00D+00 EMaxC= 1.00D-01 BMatC= 7.03D-07 BMatP= 7.98D-06
 IDIUse=1 WtCom= 1.00D+00 WtEn= 0.00D+00
 Coeff-Com: -0.300D-02-0.177D-01 0.337D-01 0.265D+00 0.722D+00
 Coeff:     -0.300D-02-0.177D-01 0.337D-01 0.265D+00 0.722D+00
 Gap=     0.321 Goal=   None    Shift=    0.000
 RMSDP=1.01D-05 MaxDP=4.53D-04 DE=-6.35D-06 OVMax= 2.68D-04

 Cycle   6  Pass 1  IDiag  1:
 E= -427.084851184722     Delta-E=       -0.000000785241 Rises=F Damp=F
 DIIS: error= 1.03D-05 at cycle   6 NSaved=   6.
 NSaved= 6 IEnMin= 6 EnMin= -427.084851184722     IErMin= 6 ErrMin= 1.03D-05
 ErrMax= 1.03D-05  0.00D+00 EMaxC= 1.00D-01 BMatC= 5.57D-08 BMatP= 7.03D-07
 IDIUse=1 WtCom= 1.00D+00 WtEn= 0.00D+00
 Coeff-Com:  0.180D-02-0.173D-01-0.162D-01 0.197D-01 0.238D+00 0.774D+00
 Coeff:      0.180D-02-0.173D-01-0.162D-01 0.197D-01 0.238D+00 0.774D+00
 Gap=     0.321 Goal=   None    Shift=    0.000
 RMSDP=3.48D-06 MaxDP=1.61D-04 DE=-7.85D-07 OVMax= 9.40D-05

 Cycle   7  Pass 1  IDiag  1:
 E= -427.084851246816     Delta-E=       -0.000000062093 Rises=F Damp=F
 DIIS: error= 4.22D-06 at cycle   7 NSaved=   7.
 NSaved= 7 IEnMin= 7 EnMin= -427.084851246816     IErMin= 7 ErrMin= 4.22D-06
 ErrMax= 4.22D-06  0.00D+00 EMaxC= 1.00D-01 BMatC= 1.27D-08 BMatP= 5.57D-08
 IDIUse=1 WtCom= 1.00D+00 WtEn= 0.00D+00
 Coeff-Com:  0.115D-02-0.641D-02-0.116D-01-0.183D-01 0.409D-01 0.383D+00
 Coeff-Com:  0.611D+00
 Coeff:      0.115D-02-0.641D-02-0.116D-01-0.183D-01 0.409D-01 0.383D+00
 Coeff:      0.611D+00
 Gap=     0.321 Goal=   None    Shift=    0.000
 RMSDP=1.15D-06 MaxDP=5.97D-05 DE=-6.21D-08 OVMax= 2.82D-05

 Cycle   8  Pass 1  IDiag  1:
 E= -427.084851259436     Delta-E=       -0.000000012620 Rises=F Damp=F
 DIIS: error= 7.45D-07 at cycle   8 NSaved=   8.
 NSaved= 8 IEnMin= 8 EnMin= -427.084851259436     IErMin= 8 ErrMin= 7.45D-07
 ErrMax= 7.45D-07  0.00D+00 EMaxC= 1.00D-01 BMatC= 4.63D-10 BMatP= 1.27D-08
 IDIUse=1 WtCom= 1.00D+00 WtEn= 0.00D+00
 Coeff-Com:  0.194D-04 0.877D-03-0.525D-03-0.650D-02-0.203D-01-0.159D-01
 Coeff-Com:  0.123D+00 0.920D+00
 Coeff:      0.194D-04 0.877D-03-0.525D-03-0.650D-02-0.203D-01-0.159D-01
 Coeff:      0.123D+00 0.920D+00
 Gap=     0.321 Goal=   None    Shift=    0.000
 RMSDP=3.63D-07 MaxDP=1.65D-05 DE=-1.26D-08 OVMax= 1.09D-05

 Cycle   9  Pass 1  IDiag  1:
 E= -427.084851260160     Delta-E=       -0.000000000724 Rises=F Damp=F
 DIIS: error= 4.25D-07 at cycle   9 NSaved=   9.
 NSaved= 9 IEnMin= 9 EnMin= -427.084851260160     IErMin= 9 ErrMin= 4.25D-07
 ErrMax= 4.25D-07  0.00D+00 EMaxC= 1.00D-01 BMatC= 1.28D-10 BMatP= 4.63D-10
 IDIUse=1 WtCom= 1.00D+00 WtEn= 0.00D+00
 Coeff-Com: -0.879D-04 0.983D-03 0.738D-03-0.168D-02-0.134D-01-0.404D-01
 Coeff-Com:  0.835D-02 0.440D+00 0.605D+00
 Coeff:     -0.879D-04 0.983D-03 0.738D-03-0.168D-02-0.134D-01-0.404D-01
 Coeff:      0.835D-02 0.440D+00 0.605D+00
 Gap=     0.321 Goal=   None    Shift=    0.000
 RMSDP=1.13D-07 MaxDP=2.83D-06 DE=-7.24D-10 OVMax= 3.62D-06

 Cycle  10  Pass 1  IDiag  1:
 E= -427.084851260271     Delta-E=       -0.000000000111 Rises=F Damp=F
 DIIS: error= 1.10D-07 at cycle  10 NSaved=  10.
 NSaved=10 IEnMin=10 EnMin= -427.084851260271     IErMin=10 ErrMin= 1.10D-07
 ErrMax= 1.10D-07  0.00D+00 EMaxC= 1.00D-01 BMatC= 7.63D-12 BMatP= 1.28D-10
 IDIUse=1 WtCom= 1.00D+00 WtEn= 0.00D+00
 Coeff-Com: -0.288D-04 0.170D-03 0.292D-03 0.389D-03-0.108D-02-0.935D-02
 Coeff-Com: -0.135D-01-0.263D-02 0.175D+00 0.851D+00
 Coeff:     -0.288D-04 0.170D-03 0.292D-03 0.389D-03-0.108D-02-0.935D-02
 Coeff:     -0.135D-01-0.263D-02 0.175D+00 0.851D+00
 Gap=     0.321 Goal=   None    Shift=    0.000
 RMSDP=3.23D-08 MaxDP=1.11D-06 DE=-1.11D-10 OVMax= 1.60D-06

 Cycle  11  Pass 1  IDiag  1:
 E= -427.084851260295     Delta-E=       -0.000000000024 Rises=F Damp=F
 DIIS: error= 3.99D-08 at cycle  11 NSaved=  11.
 NSaved=11 IEnMin=11 EnMin= -427.084851260295     IErMin=11 ErrMin= 3.99D-08
 ErrMax= 3.99D-08  0.00D+00 EMaxC= 1.00D-01 BMatC= 9.68D-13 BMatP= 7.63D-12
 IDIUse=1 WtCom= 1.00D+00 WtEn= 0.00D+00
 Coeff-Com: -0.745D-07-0.455D-04 0.157D-04 0.286D-03 0.988D-03 0.126D-02
 Coeff-Com: -0.505D-02-0.459D-01-0.388D-02 0.284D+00 0.768D+00
 Coeff:     -0.745D-07-0.455D-04 0.157D-04 0.286D-03 0.988D-03 0.126D-02
 Coeff:     -0.505D-02-0.459D-01-0.388D-02 0.284D+00 0.768D+00
 Gap=     0.321 Goal=   None    Shift=    0.000
 RMSDP=1.07D-08 MaxDP=3.12D-07 DE=-2.39D-11 OVMax= 6.41D-07

 Cycle  12  Pass 1  IDiag  1:
 E= -427.084851260291     Delta-E=        0.000000000004 Rises=F Damp=F
 DIIS: error= 1.22D-08 at cycle  12 NSaved=  12.
 NSaved=12 IEnMin=11 EnMin= -427.084851260295     IErMin=12 ErrMin= 1.22D-08
 ErrMax= 1.22D-08  0.00D+00 EMaxC= 1.00D-01 BMatC= 9.92D-14 BMatP= 9.68D-13
 IDIUse=1 WtCom= 1.00D+00 WtEn= 0.00D+00
 Coeff-Com:  0.410D-05-0.370D-04-0.375D-04 0.236D-04 0.423D-03 0.171D-02
 Coeff-Com:  0.498D-03-0.125D-01-0.261D-01-0.483D-01 0.193D+00 0.891D+00
 Coeff:      0.410D-05-0.370D-04-0.375D-04 0.236D-04 0.423D-03 0.171D-02
 Coeff:      0.498D-03-0.125D-01-0.261D-01-0.483D-01 0.193D+00 0.891D+00
 Gap=     0.321 Goal=   None    Shift=    0.000
 RMSDP=4.71D-09 MaxDP=1.15D-07 DE= 3.98D-12 OVMax= 2.87D-07

 Error on total polarization charges =  0.01968
 SCF Done:  E(RM062X) =  -427.084851260     A.U. after   12 cycles
            NFock= 12  Conv=0.47D-08     -V/T= 2.0088
 KE= 4.233473038063D+02 PE=-1.778522346514D+03 EE= 5.331861416496D+02
 SMD-CDS (non-electrostatic) energy       (kcal/mol) =       0.83
 (included in total energy above)
 Leave Link  502 at Mon May 16 16:57:59 2022, MaxMem=  2147483648 cpu:       132.9
 (Enter /gpfs/runtime/opt/gaussian/g09-D01/g09/l701.exe)
 Compute integral first derivatives.
 ... and contract with generalized density number  0.
 R6Disp: Adding Grimme-D3 dispersion energy 1st derivatives to the gradient.
 D1PCM: PCM CHGder 1st derivatives, ID1Alg=3 FixD1E=F DoIter=F DoCFld=F I1PDM=0.
 GePol: Maximum number of non-zero 1st derivatives   =     314
 Leave Link  701 at Mon May 16 16:58:01 2022, MaxMem=  2147483648 cpu:        12.7
 (Enter /gpfs/runtime/opt/gaussian/g09-D01/g09/l702.exe)
 L702 exits ... SP integral derivatives will be done elsewhere.
 Leave Link  702 at Mon May 16 16:58:01 2022, MaxMem=  2147483648 cpu:         0.1
[...]
 ! A11   A(4,3,9)              106.6933         -DE/DX =    0.0                 !
 ! A12   A(5,3,9)              100.7367         -DE/DX =    0.0                 !
 ! A13   A(3,5,6)              103.2259         -DE/DX =    0.0                 !
 ! A14   A(3,5,13)             113.1702         -DE/DX =    0.0                 !
 ! A15   A(3,5,14)             112.2796         -DE/DX =    0.0                 !
 ! A16   A(6,5,13)             108.5084         -DE/DX =    0.0                 !
 ! A17   A(6,5,14)             108.2217         -DE/DX =    0.0                 !
 ! A18   A(13,5,14)            110.9754         -DE/DX =    0.0                 !
 ! A19   A(5,6,7)              110.3518         -DE/DX =    0.0                 !
 ! A20   A(6,7,8)              126.4718         -DE/DX =    0.0                 !
 ! A21   A(6,7,9)              109.9813         -DE/DX =    0.0                 !
 ! A22   A(8,7,9)              123.5459         -DE/DX =    0.0                 !
 ! A23   A(3,9,7)              109.8581         -DE/DX =    0.0                 !
 ! A24   A(3,9,15)             109.5881         -DE/DX =    0.0                 !
 ! A25   A(7,9,15)             137.4581         -DE/DX =    0.0                 !
 ! D1    D(10,1,2,3)           177.0448         -DE/DX =    0.0                 !
 ! D2    D(10,1,2,12)            0.3009         -DE/DX =    0.0                 !
 ! D3    D(11,1,2,3)            -3.7555         -DE/DX =    0.0                 !
 ! D4    D(11,1,2,12)          179.5005         -DE/DX =    0.0                 !
 ! D5    D(1,2,3,4)             17.3653         -DE/DX =    0.0                 !
 ! D6    D(1,2,3,5)            148.9627         -DE/DX =    0.0                 !
 ! D7    D(1,2,3,9)            -99.2898         -DE/DX =    0.0                 !
 ! D8    D(12,2,3,4)          -165.7396         -DE/DX =    0.0                 !
 ! D9    D(12,2,3,5)           -34.1422         -DE/DX =    0.0                 !
 ! D10   D(12,2,3,9)            77.6053         -DE/DX =    0.0                 !
 ! D11   D(2,3,5,6)            138.5305         -DE/DX =    0.0                 !
 ! D12   D(2,3,5,13)          -104.3859         -DE/DX =    0.0                 !
 ! D13   D(2,3,5,14)            22.208          -DE/DX =    0.0                 !
 ! D14   D(4,3,5,6)            -90.0941         -DE/DX =    0.0                 !
 ! D15   D(4,3,5,13)            26.9895         -DE/DX =    0.0                 !
 ! D16   D(4,3,5,14)           153.5834         -DE/DX =    0.0                 !
 ! D17   D(9,3,5,6)             23.1877         -DE/DX =    0.0                 !
 ! D18   D(9,3,5,13)           140.2713         -DE/DX =    0.0                 !
 ! D19   D(9,3,5,14)           -93.1348         -DE/DX =    0.0                 !
 ! D20   D(2,3,9,7)           -141.7234         -DE/DX =    0.0                 !
 ! D21   D(2,3,9,15)            22.018          -DE/DX =    0.0                 !
 ! D22   D(4,3,9,7)             98.1271         -DE/DX =    0.0                 !
 ! D23   D(4,3,9,15)           -98.1315         -DE/DX =    0.0                 !
 ! D24   D(5,3,9,7)            -19.5326         -DE/DX =    0.0                 !
 ! D25   D(5,3,9,15)           144.2088         -DE/DX =    0.0                 !
 ! D26   D(3,5,6,7)            -20.7873         -DE/DX =    0.0                 !
 ! D27   D(13,5,6,7)          -141.1124         -DE/DX =    0.0                 !
 ! D28   D(14,5,6,7)            98.3818         -DE/DX =    0.0                 !
 ! D29   D(5,6,7,8)           -171.487          -DE/DX =    0.0                 !
 ! D30   D(5,6,7,9)              8.8835         -DE/DX =    0.0                 !
 ! D31   D(6,7,9,3)              7.7617         -DE/DX =    0.0                 !
 ! D32   D(6,7,9,15)          -149.2765         -DE/DX =    0.0                 !
 ! D33   D(8,7,9,3)           -171.8808         -DE/DX =    0.0                 !
 ! D34   D(8,7,9,15)            31.081          -DE/DX =    0.0                 !
 --------------------------------------------------------------------------------
 GradGradGradGradGradGradGradGradGradGradGradGradGradGradGradGradGradGrad

 Leave Link  103 at Mon May 16 17:07:16 2022, MaxMem=  2147483648 cpu:         6.2
 (Enter /gpfs/runtime/opt/gaussian/g09-D01/g09/l9999.exe)
 1\1\GINC-NODE1319\Freq\RM062X\6-31+G(d,p)\C5H6Li1O3(1+)\ROOT\16-May-20
 22\0\\#P Geom=AllCheck Guess=TCheck SCRF=Check GenChk RM062X/6-31+G(d,
 p) Freq\\4427-96-7\\1,1\C,3.121035897,0.7322010752,-0.0777889884\C,2.0
 30360054,0.163666024,0.4408375558\C,0.8405125252,-0.1726091529,-0.4016
 57091\H,1.0832645859,-0.1886406182,-1.4671889021\C,0.0220072257,-1.386
 7499208,0.0304714229\O,-1.3425581529,-0.9485262848,-0.1547985517\C,-1.
 4032576326,0.3784868866,-0.1728833104\O,-2.3952023579,1.0440993638,-0.
 166706878\O,-0.1424125063,0.9030052887,-0.208710348\H,3.9588824355,1.0
 145082666,0.5526746536\H,3.2070861105,0.9169877553,-1.1467804764\H,1.9
 427253408,-0.0307710839,1.5095072013\H,0.1915847895,-2.2614971487,-0.5
 937506589\H,0.1632986766,-1.6268705059,1.0870812841\Li,0.7645730088,2.
 513310055,0.4222930874\\Version=EM64L-G09RevD.01\State=1-A\HF=-427.099
 2755\RMSD=2.919e-09\RMSF=1.799e-05\ZeroPoint=0.1108936\Thermal=0.11954
 86\Dipole=3.7422875,2.3196083,0.7966619\DipoleDeriv=0.0166718,0.137389
 5,-0.023112,0.090386,-0.3387685,-0.0373386,-0.0463445,-0.0318007,0.060
 7762,-0.2386556,0.1341647,0.1030512,0.0683687,-0.3680937,-0.0746559,0.
 043257,-0.1060842,0.0337267,1.0601176,-0.0477623,-0.0701027,-0.4960061
 ,0.5441737,0.0692224,0.1168051,0.1617326,0.324904,0.0018704,-0.0043306
 ,-0.0012479,0.0343803,0.0551719,0.0527646,0.0124668,-0.0068308,-0.0317
 199,0.7623774,-0.366368,0.095462,-0.0531455,0.4451098,-0.07134,0.02078
 8,-0.0382147,0.3893218,-1.1100971,0.2658773,-0.0637838,0.4812833,-1.58
 54601,0.110176,-0.0176284,0.0474542,-0.3858766,3.1253131,-0.4391171,-0
 .093716,-0.4894555,2.4428212,-0.1285069,-0.1023123,-0.0552541,0.565767
 ,-1.6677978,0.5343487,0.0130597,0.6092069,-1.0306475,0.0218066,0.02612
 6,0.0105933,-0.4708314,-2.2534311,-0.0885665,0.1072881,-0.0845378,-1.0
 004253,-0.0340321,0.0085679,-0.0924956,-0.4441011,0.0406364,-0.0576759
 ,-0.042467,-0.0348243,0.1803456,0.0045582,-0.0575917,-0.0076133,0.0542
 038,0.1174159,-0.034735,-0.0340745,-0.0415405,0.1908427,0.0057195,-0.0
 027219,0.0306171,-0.0142524,0.0734628,-0.064844,0.0112437,-0.0840813,0
 .1871677,0.036678,-0.0211756,0.021488,-0.0043438,0.0785412,0.0012055,-
 0.0250352,0.029348,0.0387936,-0.0192018,0.0073466,-0.0724675,0.072313,
 0.0180814,0.0464622,0.0178937,0.0142187,0.0832262,-0.0079517,-0.020859
 2,0.0558977,-0.0508909,0.9754936,-0.0160486,0.0055407,-0.0436008,1.155
 7428,0.0721019,0.0332761,0.0829782,0.9010036\Polar=104.9834778,2.11233
 44,78.0965402,-4.609577,-3.4900462,68.5095332\PG=C01 [X(C5H6Li1O3)]\NI
 mag=0\\0.72629712,0.27200206,0.25882397,-0.03285133,-0.09280413,0.6814
 1725,-0.41091103,-0.18316752,0.14704982,0.69446038,-0.18246688,-0.1471
 2426,0.08506844,0.24017565,0.27435929,0.14505475,0.08357955,-0.1874268
 6,-0.08771543,-0.12309526,0.67255954,-0.02820968,-0.00901085,-0.012755
 08,-0.16418215,-0.03904905,-0.07637759,0.52311392,-0.01591295,-0.00056
 429,-0.01053755,-0.03090237,-0.08492314,-0.01763973,0.08521150,0.41863
 590,0.00862302,0.00322862,0.01219694,-0.06983460,-0.01861247,-0.159210
 69,-0.01498749,-0.00284543,0.64952727,0.00008805,0.00061190,-0.0014183
 3,0.00587114,-0.00047888,-0.02667458,-0.06294015,-0.00531763,0.0524888
 7,0.07483159,0.00035964,-0.00021456,-0.00064866,0.00019895,0.00265065,
 -0.00665427,-0.00766391,-0.04909458,0.00465964,-0.00342453,0.05886830,
 0.00102787,0.00051235,0.00139109,0.00223665,0.00141071,-0.01649131,0.0
 5760721,-0.00179291,-0.32027171,-0.06242726,0.00284751,0.33589912,-0.0
 0089282,-0.00061404,-0.00203824,-0.01492105,-0.01869954,0.00554454,-0.
 09277617,-0.07320884,0.02543335,-0.00076684,-0.00348399,-0.00006983,0.
 41517700,0.00145478,0.00068996,0.00163149,-0.00824428,0.00104996,-0.00
 190881,-0.04286373,-0.14588567,0.03399629,-0.00118261,-0.00122992,0.00
 130889,-0.03206020,0.62821852,-0.00262124,-0.00040630,-0.00262199,-0.0
 0657646,-0.01603934,0.00692255,0.02119993,0.03817699,-0.10627920,0.015
 63918,0.02715282,-0.00449905,0.00004807,0.03872709,0.64627670,-0.00144
 048,-0.00085100,-0.00246600,-0.00098362,-0.00637156,0.00563851,-0.0462
 1973,-0.00610726,-0.00815648,0.00043438,-0.00079378,0.00102032,-0.1872
 7104,0.00608595,-0.02098653,0.40878011,0.00006468,0.00020250,-0.000924
 51,-0.00285672,-0.00044944,0.00129964,-0.00429186,-0.01358002,-0.00398
 773,-0.00083830,0.00212829,-0.00009383,0.03497857,-0.08772974,0.009507
 35,-0.04395014,0.53259188,0.00017426,-0.00001996,0.00033572,-0.0003254
 2,0.00051535,-0.00050358,0.00612853,-0.00494967,0.00449250,-0.00079005
 ,-0.00005700,-0.00058713,-0.01782982,0.00691355,-0.06844254,0.03268650
 ,-0.02080979,0.07235126,0.00023126,0.00032888,0.00236249,-0.00023084,-
 0.00260807,-0.00160318,-0.06593106,0.04041473,0.00300632,0.00345698,-0
 .00528009,-0.00011953,-0.01024545,0.03838236,-0.00198669,-0.10911756,-
 0.03342224,-0.00129553,0.93541896,-0.00067532,-0.00010069,0.00045441,0
 .00523648,-0.00867903,0.00015107,0.00426981,0.03036408,-0.00239869,0.0
 0332488,-0.00530991,-0.00040225,0.06257116,-0.03591790,0.00022980,0.00
 611134,-0.29426345,0.00476741,-0.31359210,0.78173200,-0.00010712,0.000
 07635,-0.00035428,-0.00237803,0.00220950,0.00135012,0.00458145,0.00000
 250,-0.00521230,0.00201679,-0.00231064,-0.00000629,-0.00095719,0.00480
 929,-0.00699919,-0.00430908,0.00243652,-0.06226135,-0.00618351,-0.0055
 3366,0.22409455,-0.00037856,-0.00017617,-0.00178544,-0.00261120,0.0027
 4548,0.00246895,0.00758180,-0.01884429,-0.00209238,-0.00193225,0.00231
 064,-0.00012018,0.00942941,-0.00078237,0.00067370,-0.00825915,0.051928
 04,0.00000796,-0.57722808,0.32139576,0.00496195,0.68330306,0.00028541,
 0.00008975,0.00044259,-0.00038677,0.00084594,-0.00085182,-0.00211459,-
 0.00022587,0.00045841,0.00012068,0.00020233,0.00014134,-0.01687023,-0.
 00284079,-0.00190632,0.07201185,-0.07228408,0.00219734,0.31831428,-0.3
 1525960,0.00191051,-0.38653347,0.36413786,-0.00000141,-0.00003089,0.00
 012038,0.00076132,-0.00076107,-0.00059299,-0.00020849,0.00015477,0.005
 05111,-0.00076243,0.00078770,-0.00026158,-0.00038323,-0.00010499,0.006
 31351,0.00027616,0.00120556,0.01907139,0.00465542,0.00181702,-0.086803
 47,-0.00806448,-0.00314943,0.03909574,0.00263146,0.00082266,-0.0064374
 7,-0.04250239,0.02879197,0.00534390,-0.08542854,0.04071191,0.01866945,
 -0.01500337,0.02131286,0.00274771,-0.01507341,0.01162640,0.00022621,-0
 .02224266,-0.06180999,0.00025135,-0.16099135,-0.06724120,0.00411439,-0
 .10757503,0.00770162,0.00334559,0.44965230,-0.00157422,-0.00019027,0.0
 0030504,0.00330136,0.00735511,0.00356363,0.01092807,-0.13505234,-0.017
 45787,0.01036758,-0.00708020,-0.00294991,0.00732483,-0.05097745,-0.010
 06300,-0.03890074,-0.06334739,0.00296714,-0.03069355,-0.15061910,-0.00
 480685,0.02329879,0.02742532,0.00074370,0.02732477,0.39157513,-0.00031
 033,0.00062308,-0.00063206,-0.01332636,0.01149803,0.00675947,0.0091712
 2,-0.01073886,-0.06676314,0.02369701,-0.02703813,0.00317522,-0.0054548
 9,0.00386085,0.00426290,0.00087854,-0.00013118,0.02314279,0.00651934,0
 .00022309,-0.06405170,0.00300080,0.00034648,0.01891839,-0.02426310,0.0
 2793623,0.07938256,-0.22794314,-0.06430518,-0.13223081,-0.01364920,-0.
 00593572,-0.01667402,-0.00047701,-0.00687026,0.00217662,0.00012286,0.0
 0008321,-0.00002709,-0.00050582,0.00087740,-0.00111707,-0.00095112,-0.
 00004586,0.00012494,0.00050608,-0.00073525,0.00005111,-0.00017037,0.00
 023000,-0.00002615,0.00108090,0.00021585,0.00034743,0.23652057,-0.0632
 6625,-0.06442204,-0.04154978,-0.01076305,0.00224780,-0.00797106,-0.003
 08847,0.01031776,0.00279435,0.00000198,0.00006831,0.00013478,0.0005752
 7,-0.00068754,0.00055352,0.00069612,-0.00018263,-0.00014791,0.00041728
 ,0.00135544,-0.00029265,-0.00056797,-0.00009019,0.00012371,-0.00395656
 ,-0.00056244,-0.00082242,0.07336254,0.05272653,-0.13833791,-0.04448937
 ,-0.16270905,0.01281110,0.00479669,0.01119967,0.00145917,0.00278294,-0
 .00044365,0.00012724,0.00007400,0.00026723,0.00019931,-0.00023844,0.00
 060307,0.00042840,0.00005183,-0.00006218,-0.00033650,0.00020867,0.0000
 2904,0.00016159,-0.00010437,-0.00000851,-0.00007995,-0.00010753,-0.000
 05612,0.14354280,0.04491056,0.15961787,-0.05624082,-0.00856683,0.01541
 398,0.00244598,-0.00603166,0.02602167,-0.00013736,0.00339348,0.0019936
 8,0.00023659,0.00000827,-0.00054871,0.00018174,-0.00031396,0.00015177,
 0.00022829,0.00003336,-0.00008337,-0.00007882,0.00029659,-0.00003590,-
 0.00007138,-0.00003700,0.00002806,-0.00089625,-0.00016443,-0.00014970,
 0.00587728,0.00338638,-0.02015999,0.05014389,-0.00937759,-0.05150182,0
 .04629840,-0.00306991,0.00488901,0.01379190,0.00234923,-0.00673050,-0.
 00032172,0.00008894,0.00002036,-0.00049541,-0.00018709,0.00042468,-0.0
 0035096,-0.00041046,0.00006957,0.00015303,-0.00008272,-0.00074098,0.00
 016110,0.00024920,0.00007659,-0.00007113,0.00207778,0.00014791,0.00016
 745,0.00017236,0.00535098,-0.00691990,0.01375793,0.03944441,0.02005924
 ,0.04922099,-0.33607607,-0.00157544,0.00142020,-0.00825392,-0.00101989
 ,-0.00154285,0.00136455,0.00086910,0.00028192,0.00019646,-0.00025021,0
 .00003837,0.00019696,-0.00012999,-0.00002997,0.00004064,0.00003840,-0.
 00006041,0.00002361,0.00000433,0.00000672,-0.00000945,0.00034217,-0.00
 000769,-0.00007153,0.00348438,0.00340226,-0.00898666,-0.02307429,-0.05
 412847,0.35082789,0.00171190,-0.00608845,0.02691525,-0.05504734,-0.009
 38196,0.01802210,0.00231131,0.00194162,-0.02523485,-0.00333577,-0.0010
 8949,-0.00185425,0.00098496,0.00152056,-0.00098139,-0.00003990,0.00001
 501,0.00019283,0.00035387,0.00002385,0.00017999,-0.00018043,0.00002647
 ,-0.00005406,0.00086392,-0.00022448,0.00119064,-0.00023014,0.00325891,
 0.00025441,-0.00146445,-0.00584257,0.00093761,0.05429595,-0.00189716,0
 .00366686,0.01404952,-0.00941789,-0.05166951,0.05230926,-0.00083118,0.
 00248174,-0.00818158,-0.00176660,0.00051574,-0.00112856,0.00071142,0.0
 0083709,-0.00121785,0.00015847,-0.00022076,0.00018815,0.00088490,0.000
 49890,-0.00012323,-0.00037386,0.00003208,0.00001767,-0.00118348,0.0000
 7251,-0.00000972,0.00324393,-0.00605862,-0.00114725,-0.00585398,0.0086
 3972,0.00160766,0.01625246,0.04201944,-0.00080176,0.00162595,-0.006014
 07,0.01966192,0.05143052,-0.32782707,0.00333239,0.00168689,-0.01373324
 ,-0.00247111,-0.00023901,-0.00036231,0.00078427,0.00076085,0.00060567,
 0.00003907,-0.00012277,0.00017137,0.00054290,0.00036060,-0.00023293,-0
 .00033932,0.00002554,0.00002465,-0.00092823,0.00052230,0.00077582,0.00
 038246,-0.00119081,0.00066415,0.00031163,0.00189249,0.00117800,-0.0197
 1955,-0.05653755,0.34489644,-0.00036175,0.00006025,-0.00008905,-0.0004
 9478,-0.00016354,0.00049660,0.00639460,-0.01053560,-0.01228310,0.00094
 047,0.00040683,-0.00003179,-0.05413657,0.02171718,0.01869263,-0.013387
 65,0.03655846,0.01621931,-0.00764289,-0.00567096,0.00301152,-0.0007624
 3,0.00354779,-0.00106894,0.00217563,-0.00448138,0.00042126,-0.00007326
 ,-0.00007143,0.00003546,-0.00001584,0.00000699,0.00002352,0.00002181,-
 0.00010475,0.00008081,0.06364528,-0.00036823,-0.00008311,-0.00037408,-
 0.00023542,-0.00122956,0.00094085,0.00356217,-0.01465277,-0.01305715,0
 .00049268,0.00132444,-0.00012259,0.03333972,-0.23699342,-0.13488868,0.
 00314857,-0.00502384,-0.00198103,-0.00042852,-0.00014198,-0.00049478,0
 .00067800,-0.00051068,0.00008816,-0.00018731,-0.00385317,0.00043534,-0
 .00013366,-0.00000437,0.00007193,-0.00000626,0.00002518,0.00002726,-0.
 00002860,-0.00002833,0.00004271,-0.03807285,0.25213726,0.00019279,-0.0
 0004439,0.00022238,-0.00012264,0.00017155,-0.00032315,-0.00142412,0.00
 949837,0.00635055,-0.00044084,0.00002628,0.00085389,0.02514131,-0.1443
 6477,-0.15768242,-0.00100461,0.00737406,0.00774535,-0.00061778,0.00233
 744,0.00027875,-0.00044282,0.00051009,-0.00031626,-0.00076455,0.004110
 89,0.00016524,0.00004827,0.00003365,-0.00003130,-0.00003886,-0.0000197
 3,-0.00001790,0.00009605,0.00000965,0.00017267,-0.02448315,0.14432701,
 0.15594512,-0.00009365,-0.00006575,-0.00003854,0.00047939,-0.00041633,
 0.00150041,0.00053822,-0.00321730,0.01930942,-0.00140961,-0.00342201,0
 .00044271,-0.04932950,0.00312751,-0.02250681,-0.01920834,0.02095991,-0
 .03539812,-0.00285855,-0.00950312,-0.00410025,-0.00153847,0.00316376,0
 .00134232,0.00264434,0.00019984,0.00045689,-0.00002752,0.00001477,-0.0
 0000851,-0.00000578,-0.00000899,-0.00007802,0.00004523,0.00001130,-0.0
 0051991,0.00358536,-0.00192393,0.00398444,0.06725178,-0.00000776,0.000
 04518,-0.00007053,0.00069849,0.00083243,0.00074837,-0.00002829,-0.0037
 2872,0.02544621,-0.00167154,-0.00308932,0.00053231,0.00560383,-0.06817
 005,0.04968671,0.00748462,-0.00185094,0.01062485,0.00062060,0.00066349
 ,0.00155157,0.00026984,-0.00043832,-0.00056208,-0.00008996,-0.00008257
 ,-0.00092563,0.00003162,-0.00003452,-0.00004676,0.00005049,-0.00002177
 ,-0.00009205,-0.00065200,-0.00027212,-0.00072775,-0.00345713,0.0087144
 4,-0.02379790,-0.00890823,0.06735771,-0.00004337,-0.00007862,0.0003401
 9,-0.00111571,-0.00046705,0.00064775,0.00165136,0.00038964,-0.00692737
 ,0.00027821,0.00124880,0.00090088,-0.03011187,0.05473055,-0.31892174,-
 0.00476806,0.00233993,0.00426605,-0.00016867,-0.00148290,0.00028295,-0
 .00001924,0.00025448,-0.00035798,-0.00031112,0.00096627,-0.00013987,0.
 00005176,-0.00000467,-0.00003845,-0.00014008,0.00001046,-0.00006026,0.
 00027546,-0.00020869,0.00029405,-0.00112156,0.00484423,-0.01327694,0.0
 3558001,-0.06246361,0.33306383,-0.00448785,-0.00097995,0.00036875,0.00
 227669,-0.00010992,-0.00104662,0.00636199,-0.00075674,0.00088816,-0.00
 059405,0.00047738,0.00011616,0.00014558,0.00065502,0.00014470,-0.00032
 152,0.00267709,-0.00006337,-0.00564254,-0.00581194,-0.00084613,0.00039
 308,0.00054019,0.00016030,-0.00933556,-0.00692229,-0.00217875,-0.00008
 011,0.00000049,-0.00009661,-0.00020306,0.00027688,0.00036909,-0.000290
 92,0.00016640,-0.00035558,0.00011204,0.00016364,-0.00012349,-0.0000729
 1,0.00005542,-0.00003713,0.01173914,0.00137979,0.00068282,-0.00134068,
 -0.00056700,-0.00015525,0.00173667,0.00262115,-0.00736159,-0.00372088,
 -0.00032856,0.00024008,0.00009757,0.00001910,-0.00078773,0.00083817,0.
 00168803,0.00394006,-0.00036147,-0.01325576,-0.00358127,0.00040446,0.0
 0440238,-0.00116034,-0.00025872,-0.00590148,-0.01481105,-0.00542462,-0
 .00019097,-0.00002447,0.00015698,0.00004761,-0.00009333,-0.00014394,0.
 00026866,-0.00051473,0.00047006,0.00026013,0.00031991,-0.00017220,-0.0
 0001142,0.00007509,-0.00007883,0.00956833,0.02323182,-0.00005747,-0.00
 099325,-0.00018959,0.00044926,0.00045421,0.00119047,0.00164142,-0.0026
 4511,-0.00014162,-0.00013182,-0.00013099,-0.00020453,-0.00005559,-0.00
 016022,0.00026478,0.00085324,0.00188489,0.00023971,-0.00481348,-0.0006
 7161,-0.00013750,0.00158459,-0.00028157,-0.00024493,-0.00225635,-0.005
 72237,-0.00486796,-0.00013463,0.00002645,-0.00004511,0.00031012,-0.000
 16751,-0.00035231,-0.00022024,0.00037254,-0.00061319,0.00009648,0.0001
 4081,-0.00008597,0.00003396,0.00009629,-0.00007309,0.00270052,0.007797
 42,0.00526084\\0.00000435,-0.00002029,0.00003450,-0.00000940,-0.000013
 95,0.00001164,0.00000523,0.00001379,0.00000475,0.00001481,0.00000804,0
 .00000045,-0.00000676,-0.00000024,-0.00001685,0.00000010,0.00002731,-0
 .00003504,-0.00001986,0.00000175,-0.00002547,0.00001541,0.00002291,-0.
 00002690,0.00001760,0.00000480,-0.00000931,0.00000002,-0.00002118,0.00
 004198,0.00001891,-0.00000493,0.00003328,-0.00001879,-0.00001823,0.000
 01315,-0.00000913,0.00000786,-0.00002343,-0.00002555,-0.00000260,-0.00
 001917,0.00001306,-0.00000505,0.00001641\\\@


 MISERY NO LONGER LOVES COMPANY.  NOWADAYS IT INSISTS ON IT.

                                              -- BAKER'S LAW
 Job cpu time:       0 days  0 hours 13 minutes 51.9 seconds.
 File lengths (MBytes):  RWF=    584 Int=      0 D2E=      0 Chk=     12 Scr=      8
 Normal termination of Gaussian 09 at Mon May 16 17:07:16 2022.
