 Entering Gaussian System, Link 0=g09
 Initial command:
 /gpfs/runtime/opt/gaussian/g09-D01/g09/l1.exe "/gpfs/data/yqi27/cgu13/CHEM1560Q/Gaussian/872-36-6/inp2/Gau-224104.inp" -scrdir="/gpfs/data/yqi27/cgu13/CHEM1560Q/Gaussian/872-36-6/inp2/"
 Entering Link 1 = /gpfs/runtime/opt/gaussian/g09-D01/g09/l1.exe PID=    224105.
  
 Copyright (c) 1988,1990,1992,1993,1995,1998,2003,2009,2013,
            Gaussian, Inc.  All Rights Reserved.
  
 This is part of the Gaussian(R) 09 program.  It is based on
 the Gaussian(R) 03 system (copyright 2003, Gaussian, Inc.),
 the Gaussian(R) 98 system (copyright 1998, Gaussian, Inc.),
 the Gaussian(R) 94 system (copyright 1995, Gaussian, Inc.),
 the Gaussian 92(TM) system (copyright 1992, Gaussian, Inc.),
 the Gaussian 90(TM) system (copyright 1990, Gaussian, Inc.),
 the Gaussian 88(TM) system (copyright 1988, Gaussian, Inc.),
 the Gaussian 86(TM) system (copyright 1986, Carnegie Mellon
 University), and the Gaussian 82(TM) system (copyright 1983,
 Carnegie Mellon University). Gaussian is a federally registered
 trademark of Gaussian, Inc.
  
 This software contains proprietary and confidential information,
 including trade secrets, belonging to Gaussian, Inc.
  
 This software is provided under written license and may be
 used, copied, transmitted, or stored only in accord with that
 written license.
  
 The following legend is applicable only to US Government
 contracts under FAR:
  
                    RESTRICTED RIGHTS LEGEND
  
 Use, reproduction and disclosure by the US Government is
 subject to restrictions as set forth in subparagraphs (a)
 and (c) of the Commercial Computer Software - Restricted
 Rights clause in FAR 52.227-19.
  
 Gaussian, Inc.
 340 Quinnipiac St., Bldg. 40, Wallingford CT 06492
  
  
 ---------------------------------------------------------------
 Warning -- This program may not be used in any manner that
 competes with the business of Gaussian, Inc. or will provide
 assistance to any competitor of Gaussian, Inc.  The licensee
 of this program is prohibited from giving any competitor of
 Gaussian, Inc. access to this program.  By using this program,
 the user acknowledges that Gaussian, Inc. is engaged in the
 business of creating and licensing software in the field of
 computational chemistry and represents and warrants to the
 licensee that it is not a competitor of Gaussian, Inc. and that
 it will not use this program in any manner prohibited above.
 ---------------------------------------------------------------
  

 Cite this work as:
 Gaussian 09, Revision D.01,
 M. J. Frisch, G. W. Trucks, H. B. Schlegel, G. E. Scuseria, 
 M. A. Robb, J. R. Cheeseman, G. Scalmani, V. Barone, B. Mennucci, 
 G. A. Petersson, H. Nakatsuji, M. Caricato, X. Li, H. P. Hratchian, 
 A. F. Izmaylov, J. Bloino, G. Zheng, J. L. Sonnenberg, M. Hada, 
 M. Ehara, K. Toyota, R. Fukuda, J. Hasegawa, M. Ishida, T. Nakajima, 
 Y. Honda, O. Kitao, H. Nakai, T. Vreven, J. A. Montgomery, Jr., 
 J. E. Peralta, F. Ogliaro, M. Bearpark, J. J. Heyd, E. Brothers, 
 K. N. Kudin, V. N. Staroverov, T. Keith, R. Kobayashi, J. Normand, 
 K. Raghavachari, A. Rendell, J. C. Burant, S. S. Iyengar, J. Tomasi, 
 M. Cossi, N. Rega, J. M. Millam, M. Klene, J. E. Knox, J. B. Cross, 
 V. Bakken, C. Adamo, J. Jaramillo, R. Gomperts, R. E. Stratmann, 
 O. Yazyev, A. J. Austin, R. Cammi, C. Pomelli, J. W. Ochterski, 
 R. L. Martin, K. Morokuma, V. G. Zakrzewski, G. A. Voth, 
 P. Salvador, J. J. Dannenberg, S. Dapprich, A. D. Daniels, 
 O. Farkas, J. B. Foresman, J. V. Ortiz, J. Cioslowski, 
 and D. J. Fox, Gaussian, Inc., Wallingford CT, 2013.
 
 ******************************************
 Gaussian 09:  EM64L-G09RevD.01 24-Apr-2013
                16-May-2022 
 ******************************************
 %Mem=16GB
 %NProcShared=8
 Will use up to    8 processors via shared memory.
 ----------------------------------------------------------------------
 #P M062X/6-31+G** EmpiricalDispersion=GD3 SCRF(SMD,solvent=DiMethylSul
 foxide) Opt Freq
 ----------------------------------------------------------------------
 1/14=-1,18=20,19=15,26=3,38=1/1,3;
 2/9=110,12=2,17=6,18=5,40=1/2;
 3/5=1,6=6,7=111,11=2,16=1,25=1,30=1,70=32201,71=1,72=21,74=-55,124=31/1,2,3;
 4//1;
 5/5=2,38=5,53=21/2;
 6/7=2,8=2,9=2,10=2,28=1/1;
 7//1,2,3,16;
 1/14=-1,18=20,19=15,26=3/3(2);
 2/9=110/2;
 99//99;
 2/9=110/2;
 3/5=1,6=6,7=111,11=2,16=1,25=1,30=1,70=32205,71=1,72=21,74=-55,124=31/1,2,3;
 4/5=5,16=3,69=1/1;
 5/5=2,38=5,53=21/2;
 7//1,2,3,16;
 1/14=-1,18=20,19=15,26=3/3(-5);
 2/9=110/2;
 6/7=2,8=2,9=2,10=2,19=2,28=1/1;
 99/9=1/99;
 Leave Link    1 at Mon May 16 16:33:28 2022, MaxMem=  2147483648 cpu:         0.5
 (Enter /gpfs/runtime/opt/gaussian/g09-D01/g09/l101.exe)
 --------
 872-36-6
 --------
 Symbolic Z-matrix:
 Charge =  1 Multiplicity = 1
 O                    -1.9336    0.       -0.0008 
 C                    -0.7179    0.       -0.0011 
 O                     0.0735    1.0847    0.0009 
 C                     1.3613    0.6617    0.0002 
 C                     1.3613   -0.6617   -0.0022 
 O                     0.0735   -1.0847    0.0024 
 H                     2.2361    1.2951    0.0009 
 H                     2.2361   -1.2951   -0.0038 
 Li                    0.5863    4.2951   -0.0004 
 
 Add virtual bond connecting atoms Li9        and O3         Dist= 6.14D+00.
 NAtoms=      9 NQM=        9 NQMF=       0 NMMI=      0 NMMIF=      0
                NMic=       0 NMicF=      0.
                    Isotopes and Nuclear Properties:
 (Nuclear quadrupole moments (NQMom) in fm**2, nuclear magnetic moments (NMagM)
  in nuclear magnetons)

  Atom         1           2           3           4           5           6           7           8           9
 IAtWgt=          16          12          16          12          12          16           1           1           7
 AtmWgt=  15.9949146  12.0000000  15.9949146  12.0000000  12.0000000  15.9949146   1.0078250   1.0078250   7.0160045
 NucSpn=           0           0           0           0           0           0           1           1           3
 AtZEff=   0.0000000   0.0000000   0.0000000   0.0000000   0.0000000   0.0000000   0.0000000   0.0000000   0.0000000
 NQMom=    0.0000000   0.0000000   0.0000000   0.0000000   0.0000000   0.0000000   0.0000000   0.0000000  -4.0100000
 NMagM=    0.0000000   0.0000000   0.0000000   0.0000000   0.0000000   0.0000000   2.7928460   2.7928460   3.2564240
 AtZNuc=   8.0000000   6.0000000   8.0000000   6.0000000   6.0000000   8.0000000   1.0000000   1.0000000   3.0000000
 Leave Link  101 at Mon May 16 16:33:29 2022, MaxMem=  2147483648 cpu:         2.4
 (Enter /gpfs/runtime/opt/gaussian/g09-D01/g09/l103.exe)

 GradGradGradGradGradGradGradGradGradGradGradGradGradGradGradGradGradGrad
 Berny optimization.
 Initialization pass.
                           ----------------------------
                           !    Initial Parameters    !
                           ! (Angstroms and Degrees)  !
 --------------------------                            --------------------------
 ! Name  Definition              Value          Derivative Info.                !
 --------------------------------------------------------------------------------
 ! R1    R(1,2)                  1.2157         estimate D2E/DX2                !
 ! R2    R(2,3)                  1.3427         estimate D2E/DX2                !
 ! R3    R(2,6)                  1.3427         estimate D2E/DX2                !
 ! R4    R(3,4)                  1.3555         estimate D2E/DX2                !
 ! R5    R(3,9)                  3.2511         estimate D2E/DX2                !
 ! R6    R(4,5)                  1.3234         estimate D2E/DX2                !
 ! R7    R(4,7)                  1.08           estimate D2E/DX2                !
 ! R8    R(5,6)                  1.3555         estimate D2E/DX2                !
 ! R9    R(5,8)                  1.08           estimate D2E/DX2                !
 ! A1    A(1,2,3)              126.1145         estimate D2E/DX2                !
 ! A2    A(1,2,6)              126.1144         estimate D2E/DX2                !
 ! A3    A(3,2,6)              107.7705         estimate D2E/DX2                !
 ! A4    A(2,3,4)              107.9309         estimate D2E/DX2                !
 ! A5    A(2,3,9)              152.9604         estimate D2E/DX2                !
 ! A6    A(4,3,9)               99.1084         estimate D2E/DX2                !
 ! A7    A(3,4,5)              108.1837         estimate D2E/DX2                !
 ! A8    A(3,4,7)              125.9098         estimate D2E/DX2                !
 ! A9    A(5,4,7)              125.9065         estimate D2E/DX2                !
 ! A10   A(4,5,6)              108.1831         estimate D2E/DX2                !
 ! A11   A(4,5,8)              125.9065         estimate D2E/DX2                !
 ! A12   A(6,5,8)              125.91           estimate D2E/DX2                !
 ! A13   A(2,6,5)              107.9302         estimate D2E/DX2                !
 ! D1    D(1,2,3,4)            179.9789         estimate D2E/DX2                !
 ! D2    D(1,2,3,9)             -0.2974         estimate D2E/DX2                !
 ! D3    D(6,2,3,4)              0.2429         estimate D2E/DX2                !
 ! D4    D(6,2,3,9)            179.9666         estimate D2E/DX2                !
 ! D5    D(1,2,6,5)            179.8738         estimate D2E/DX2                !
 ! D6    D(3,2,6,5)             -0.3902         estimate D2E/DX2                !
 ! D7    D(2,3,4,5)              0.0004         estimate D2E/DX2                !
 ! D8    D(2,3,4,7)            179.968          estimate D2E/DX2                !
 ! D9    D(9,3,4,5)           -179.8724         estimate D2E/DX2                !
 ! D10   D(9,3,4,7)              0.0952         estimate D2E/DX2                !
 ! D11   D(3,4,5,6)             -0.2418         estimate D2E/DX2                !
 ! D12   D(3,4,5,8)            179.9675         estimate D2E/DX2                !
 ! D13   D(7,4,5,6)            179.7906         estimate D2E/DX2                !
 ! D14   D(7,4,5,8)             -0.0002         estimate D2E/DX2                !
 ! D15   D(4,5,6,2)              0.3931         estimate D2E/DX2                !
 ! D16   D(8,5,6,2)           -179.8161         estimate D2E/DX2                !
 --------------------------------------------------------------------------------
 Trust Radius=3.00D-01 FncErr=1.00D-07 GrdErr=1.00D-06
 Number of steps in this run=     48 maximum allowed number of steps=    100.
 GradGradGradGradGradGradGradGradGradGradGradGradGradGradGradGradGradGrad

 Leave Link  103 at Mon May 16 16:33:29 2022, MaxMem=  2147483648 cpu:         0.1
 (Enter /gpfs/runtime/opt/gaussian/g09-D01/g09/l202.exe)
                          Input orientation:                          
 ---------------------------------------------------------------------
 Center     Atomic      Atomic             Coordinates (Angstroms)
 Number     Number       Type             X           Y           Z
 ---------------------------------------------------------------------
      1          8           0       -1.933600    0.000000   -0.000800
      2          6           0       -0.717900    0.000000   -0.001100
      3          8           0        0.073500    1.084700    0.000900
      4          6           0        1.361300    0.661700    0.000200
      5          6           0        1.361300   -0.661700   -0.002200
      6          8           0        0.073500   -1.084700    0.002400
      7          1           0        2.236100    1.295100    0.000900
      8          1           0        2.236100   -1.295100   -0.003800
      9          3           0        0.586300    4.295100   -0.000400
 ---------------------------------------------------------------------
                    Distance matrix (angstroms):
                    1          2          3          4          5
     1  O    0.000000
     2  C    1.215700   0.000000
     3  O    2.281453   1.342718   0.000000
     4  C    3.360687   2.181954   1.355492   0.000000
     5  C    3.360687   2.181953   2.169874   1.323402   0.000000
     6  O    2.281455   1.342721   2.169401   2.169872   1.355500
     7  H    4.366198   3.225431   2.172811   1.080033   2.143444
     8  H    4.366199   3.225431   3.215635   2.143445   1.080034
     9  Li   4.979737   4.488744   3.251097   3.715134   5.017020
                    6          7          8          9
     6  O    0.000000
     7  H    3.215632   0.000000
     8  H    2.172820   2.590204   0.000000
     9  Li   5.404185   3.423718   5.828567   0.000000
 Stoichiometry    C3H2LiO3(1+)
 Framework group  C1[X(C3H2LiO3)]
 Deg. of freedom    21
 Full point group                 C1      NOp   1
 Largest Abelian subgroup         C1      NOp   1
 Largest concise Abelian subgroup C1      NOp   1
                         Standard orientation:                         
 ---------------------------------------------------------------------
 Center     Atomic      Atomic             Coordinates (Angstroms)
 Number     Number       Type             X           Y           Z
 ---------------------------------------------------------------------
      1          8           0       -1.015873   -1.765067    0.000743
      2          6           0       -0.556812   -0.639372    0.001043
      3          8           0        0.746422   -0.316157   -0.000957
      4          6           0        0.841026    1.036029   -0.000257
      5          6           0       -0.384396    1.535759    0.002143
      6          8           0       -1.262366    0.503031   -0.002457
      7          1           0        1.757865    1.606885   -0.000957
      8          1           0       -0.640569    2.584971    0.003743
      9          3           0        3.912778   -1.053602    0.000343
 ---------------------------------------------------------------------
 Rotational constants (GHZ):      4.2853429      2.8680838      1.7181611
 Leave Link  202 at Mon May 16 16:33:29 2022, MaxMem=  2147483648 cpu:         0.4
 (Enter /gpfs/runtime/opt/gaussian/g09-D01/g09/l301.exe)
 Standard basis: 6-31+G(d,p) (6D, 7F)
 Ernie: Thresh=  0.10000D-02 Tol=  0.10000D-05 Strict=F.
 There are   143 symmetry adapted cartesian basis functions of A   symmetry.
 There are   143 symmetry adapted basis functions of A   symmetry.
   143 basis functions,   238 primitive gaussians,   143 cartesian basis functions
    23 alpha electrons       23 beta electrons
       nuclear repulsion energy       247.5031802226 Hartrees.
 IExCor= 4336 DFT=T Ex+Corr=M062X ExCW=0 ScaHFX=  0.540000
 ScaDFX=  1.000000  1.000000  1.000000  1.000000 ScalE2=  1.000000  1.000000
 IRadAn=      0 IRanWt=     -1 IRanGd=            0 ICorTp=0 IEmpDi=131
 NAtoms=    9 NActive=    9 NUniq=    9 SFac= 1.00D+00 NAtFMM=   60 NAOKFM=F Big=F
 Integral buffers will be    131072 words long.
 Raffenetti 2 integral format.
 Two-electron integral symmetry is turned on.
 R6Disp:  Grimme-D3 Dispersion energy=       -0.0001905503 Hartrees.
 Nuclear repulsion after empirical dispersion term =      247.5029896723 Hartrees.
 ------------------------------------------------------------------------------
 Polarizable Continuum Model (PCM)
 =================================
 Model                : PCM (using non-symmetric T matrix).
 Atomic radii         : SMD-Coulomb.
 Polarization charges : Total charges.
 Charge compensation  : None.
 Solution method      : On-the-fly selection.
 Cavity type          : VdW (van der Waals Surface) (Alpha=1.000).
 Cavity algorithm     : GePol (No added spheres)
                        Default sphere list used, NSphG=    9.
                        Lebedev-Laikov grids with approx.  5.0 points / Ang**2.
                        Smoothing algorithm: Karplus/York (Gamma=1.0000).
                        Polarization charges: spherical gaussians, with
                                              point-specific exponents (IZeta= 3).
                        Self-potential: point-specific (ISelfS= 7).
                        Self-field    : sphere-specific E.n sum rule (ISelfD= 2).
 1st derivatives      : Analytical E(r).r(x)/FMM algorithm (CHGder, D1EAlg=3).
                        Cavity 1st derivative terms included.
 Solvent              : DiMethylSulfoxide, Eps=  46.826000 Eps(inf)=   2.007889
 ------------------------------------------------------------------------------
 Spheres list:
 ISph  on   Nord     Re0    Alpha      Xe            Ye            Ze
    1   O      1    2.2940  1.000     -1.015873     -1.765067      0.000743
    2   C      2    1.8500  1.000     -0.556812     -0.639372      0.001043
    3   O      3    2.2940  1.000      0.746422     -0.316157     -0.000957
    4   C      4    1.8500  1.000      0.841026      1.036029     -0.000257
    5   C      5    1.8500  1.000     -0.384396      1.535759      0.002143
    6   O      6    2.2940  1.000     -1.262366      0.503031     -0.002457
    7   H      7    1.2000  1.000      1.757865      1.606885     -0.000957
    8   H      8    1.2000  1.000     -0.640569      2.584971      0.003743
    9  Li      9    1.8200  1.000      3.912778     -1.053602      0.000343
 ------------------------------------------------------------------------------
 GePol: Number of generator spheres                  =       9
 GePol: Total number of spheres                      =       9
 GePol: Number of exposed spheres                    =       9 (100.00%)
 GePol: Number of points                             =    1235
 GePol: Average weight of points                     =       0.13
 GePol: Minimum weight of points                     =   0.10D-11
 GePol: Maximum weight of points                     =    0.17992
 GePol: Number of points with low weight             =      37
 GePol: Fraction of low-weight points (<1% of avg)   =       3.00%
 GePol: Cavity surface area                          =    160.617 Ang**2
 GePol: Cavity volume                                =    146.154 Ang**3
 ------------------------------------------------------------------------------
 Atomic radii for non-electrostatic terms: SMD-CDS.
 ------------------------------------------------------------------------------
 PCM non-electrostatic energy =         0.0020549247 Hartrees.
 Nuclear repulsion after PCM non-electrostatic terms =      247.5050445970 Hartrees.
 Leave Link  301 at Mon May 16 16:33:30 2022, MaxMem=  2147483648 cpu:         0.7
 (Enter /gpfs/runtime/opt/gaussian/g09-D01/g09/l302.exe)
 NPDir=0 NMtPBC=     1 NCelOv=     1 NCel=       1 NClECP=     1 NCelD=      1
         NCelK=      1 NCelE2=     1 NClLst=     1 CellRange=     0.0.
 One-electron integrals computed using PRISM.
 NBasis=   143 RedAO= T EigKep=  4.35D-05  NBF=   143
 NBsUse=   143 1.00D-06 EigRej= -1.00D+00 NBFU=   143
 Precomputing XC quadrature grid using
 IXCGrd= 4 IRadAn=           0 IRanWt=          -1 IRanGd=           0 AccXCQ= 0.00D+00.
 Generated NRdTot=       0 NPtTot=           0 NUsed=           0 NTot=          32
 NSgBfM=   143   143   143   143   143 MxSgAt=     9 MxSgA2=     9.
 Leave Link  302 at Mon May 16 16:33:30 2022, MaxMem=  2147483648 cpu:         2.5
 (Enter /gpfs/runtime/opt/gaussian/g09-D01/g09/l303.exe)
 DipDrv:  MaxL=1.
 Leave Link  303 at Mon May 16 16:33:31 2022, MaxMem=  2147483648 cpu:         1.0
 (Enter /gpfs/runtime/opt/gaussian/g09-D01/g09/l401.exe)
 ExpMin= 7.40D-03 ExpMax= 5.48D+03 ExpMxC= 8.25D+02 IAcc=3 IRadAn=         5 AccDes= 0.00D+00
 Harris functional with IExCor= 1009 and IRadAn=       5 diagonalized for initial guess.
 HarFok:  IExCor= 1009 AccDes= 0.00D+00 IRadAn=         5 IDoV= 1 UseB2=F ITyADJ=14
 ICtDFT=  3500011 ScaDFX=  1.000000  1.000000  1.000000  1.000000
 FoFCou: FMM=F IPFlag=           0 FMFlag=      100000 FMFlg1=           0
         NFxFlg=           0 DoJE=T BraDBF=F KetDBF=T FulRan=T
         wScrn=  0.000000 ICntrl=     500 IOpCl=  0 I1Cent=   200000004 NGrid=           0
         NMat0=    1 NMatS0=      1 NMatT0=    0 NMatD0=    1 NMtDS0=    0 NMtDT0=    0
 Petite list used in FoFCou.
 Harris En= -348.214294352020    
 JPrj=0 DoOrth=F DoCkMO=F.
 Leave Link  401 at Mon May 16 16:33:32 2022, MaxMem=  2147483648 cpu:         7.3
 (Enter /gpfs/runtime/opt/gaussian/g09-D01/g09/l502.exe)
 Closed shell SCF:
 Using DIIS extrapolation, IDIIS=  1040.
 Integral symmetry usage will be decided dynamically.
 Keep R1 ints in memory in canonical form, NReq=57753755.
 IVT=       82101 IEndB=       82101 NGot=  2147483648 MDV=  2094392592
 LenX=  2094392592 LenY=  2094371702
 Requested convergence on RMS density matrix=1.00D-08 within 128 cycles.
 Requested convergence on MAX density matrix=1.00D-06.
 Requested convergence on             energy=1.00D-06.
 No special actions if energy rises.
 FoFCou: FMM=F IPFlag=           0 FMFlag=           0 FMFlg1=           0
         NFxFlg=           0 DoJE=F BraDBF=F KetDBF=F FulRan=T
         wScrn=  0.000000 ICntrl=     600 IOpCl=  0 I1Cent=           0 NGrid=           0
         NMat0=    1 NMatS0=  10296 NMatT0=    0 NMatD0=    1 NMtDS0=    0 NMtDT0=    0
 Symmetry not used in FoFCou.

 Cycle   1  Pass 1  IDiag  1:
 Inv3:  Mode=1 IEnd=     4575675.
 Iteration    1 A*A^-1 deviation from unit magnitude is 6.44D-15 for    554.
 Iteration    1 A*A^-1 deviation from orthogonality  is 4.37D-15 for    515     90.
 Iteration    1 A^-1*A deviation from unit magnitude is 6.33D-15 for    554.
 Iteration    1 A^-1*A deviation from orthogonality  is 7.02D-15 for    852    448.
 E= -348.364932442037    
 DIIS: error= 3.84D-02 at cycle   1 NSaved=   1.
 NSaved= 1 IEnMin= 1 EnMin= -348.364932442037     IErMin= 1 ErrMin= 3.84D-02
 ErrMax= 3.84D-02  0.00D+00 EMaxC= 1.00D-01 BMatC= 1.71D-01 BMatP= 1.71D-01
 IDIUse=3 WtCom= 6.16D-01 WtEn= 3.84D-01
 Coeff-Com:  0.100D+01
 Coeff-En:   0.100D+01
 Coeff:      0.100D+01
 Gap=     0.251 Goal=   None    Shift=    0.000
 GapD=    0.251 DampG=1.000 DampE=0.500 DampFc=0.5000 IDamp=-1.
 Damping current iteration by 5.00D-01
 RMSDP=5.96D-03 MaxDP=1.70D-01              OVMax= 2.03D-01

 Cycle   2  Pass 1  IDiag  1:
 E= -348.409228561766     Delta-E=       -0.044296119730 Rises=F Damp=T
 DIIS: error= 9.71D-03 at cycle   2 NSaved=   2.
 NSaved= 2 IEnMin= 2 EnMin= -348.409228561766     IErMin= 2 ErrMin= 9.71D-03
 ErrMax= 9.71D-03  0.00D+00 EMaxC= 1.00D-01 BMatC= 2.19D-02 BMatP= 1.71D-01
 IDIUse=3 WtCom= 9.03D-01 WtEn= 9.71D-02
 Coeff-Com:  0.811D-01 0.919D+00
 Coeff-En:   0.189D+00 0.811D+00
 Coeff:      0.916D-01 0.908D+00
 Gap=     0.283 Goal=   None    Shift=    0.000
 RMSDP=1.68D-03 MaxDP=4.58D-02 DE=-4.43D-02 OVMax= 1.46D-01

 Cycle   3  Pass 1  IDiag  1:
 E= -348.473569598444     Delta-E=       -0.064341036678 Rises=F Damp=F
 DIIS: error= 7.44D-03 at cycle   3 NSaved=   3.
 NSaved= 3 IEnMin= 3 EnMin= -348.473569598444     IErMin= 3 ErrMin= 7.44D-03
 ErrMax= 7.44D-03  0.00D+00 EMaxC= 1.00D-01 BMatC= 8.24D-03 BMatP= 2.19D-02
 IDIUse=3 WtCom= 9.26D-01 WtEn= 7.44D-02
 Coeff-Com: -0.725D-01 0.366D+00 0.707D+00
 Coeff-En:   0.000D+00 0.000D+00 0.100D+01
 Coeff:     -0.671D-01 0.339D+00 0.728D+00
 Gap=     0.297 Goal=   None    Shift=    0.000
 RMSDP=7.28D-04 MaxDP=2.26D-02 DE=-6.43D-02 OVMax= 3.20D-02

 Cycle   4  Pass 1  IDiag  1:
 E= -348.478954526781     Delta-E=       -0.005384928337 Rises=F Damp=F
 DIIS: error= 2.36D-03 at cycle   4 NSaved=   4.
 NSaved= 4 IEnMin= 4 EnMin= -348.478954526781     IErMin= 4 ErrMin= 2.36D-03
 ErrMax= 2.36D-03  0.00D+00 EMaxC= 1.00D-01 BMatC= 1.31D-03 BMatP= 8.24D-03
 IDIUse=3 WtCom= 9.76D-01 WtEn= 2.36D-02
 Coeff-Com: -0.336D-01 0.867D-01 0.350D+00 0.597D+00
 Coeff-En:   0.000D+00 0.000D+00 0.817D-01 0.918D+00
 Coeff:     -0.328D-01 0.846D-01 0.344D+00 0.604D+00
 Gap=     0.291 Goal=   None    Shift=    0.000
 RMSDP=2.16D-04 MaxDP=5.46D-03 DE=-5.38D-03 OVMax= 9.15D-03

 Cycle   5  Pass 1  IDiag  1:
 E= -348.479916607459     Delta-E=       -0.000962080677 Rises=F Damp=F
 DIIS: error= 5.22D-04 at cycle   5 NSaved=   5.
 NSaved= 5 IEnMin= 5 EnMin= -348.479916607459     IErMin= 5 ErrMin= 5.22D-04
 ErrMax= 5.22D-04  0.00D+00 EMaxC= 1.00D-01 BMatC= 3.90D-05 BMatP= 1.31D-03
 IDIUse=3 WtCom= 9.95D-01 WtEn= 5.22D-03
 Coeff-Com: -0.881D-02 0.154D-01 0.950D-01 0.232D+00 0.667D+00
 Coeff-En:   0.000D+00 0.000D+00 0.000D+00 0.000D+00 0.100D+01
 Coeff:     -0.877D-02 0.153D-01 0.945D-01 0.231D+00 0.668D+00
 Gap=     0.290 Goal=   None    Shift=    0.000
 RMSDP=4.12D-05 MaxDP=9.81D-04 DE=-9.62D-04 OVMax= 1.84D-03

 Cycle   6  Pass 1  IDiag  1:
 E= -348.479947631115     Delta-E=       -0.000031023656 Rises=F Damp=F
 DIIS: error= 9.96D-05 at cycle   6 NSaved=   6.
 NSaved= 6 IEnMin= 6 EnMin= -348.479947631115     IErMin= 6 ErrMin= 9.96D-05
 ErrMax= 9.96D-05  0.00D+00 EMaxC= 1.00D-01 BMatC= 2.86D-06 BMatP= 3.90D-05
 IDIUse=1 WtCom= 1.00D+00 WtEn= 0.00D+00
 Coeff-Com: -0.140D-02 0.614D-03 0.144D-01 0.432D-01 0.257D+00 0.686D+00
 Coeff:     -0.140D-02 0.614D-03 0.144D-01 0.432D-01 0.257D+00 0.686D+00
 Gap=     0.290 Goal=   None    Shift=    0.000
 RMSDP=1.24D-05 MaxDP=2.46D-04 DE=-3.10D-05 OVMax= 5.08D-04

 Cycle   7  Pass 1  IDiag  1:
 E= -348.479950033140     Delta-E=       -0.000002402025 Rises=F Damp=F
 DIIS: error= 3.72D-05 at cycle   7 NSaved=   7.
 NSaved= 7 IEnMin= 7 EnMin= -348.479950033140     IErMin= 7 ErrMin= 3.72D-05
 ErrMax= 3.72D-05  0.00D+00 EMaxC= 1.00D-01 BMatC= 1.99D-07 BMatP= 2.86D-06
 IDIUse=1 WtCom= 1.00D+00 WtEn= 0.00D+00
 Coeff-Com:  0.877D-03-0.192D-02-0.842D-02-0.230D-01-0.134D-01 0.114D+00
 Coeff-Com:  0.932D+00
 Coeff:      0.877D-03-0.192D-02-0.842D-02-0.230D-01-0.134D-01 0.114D+00
 Coeff:      0.932D+00
 Gap=     0.290 Goal=   None    Shift=    0.000
 RMSDP=7.02D-06 MaxDP=1.51D-04 DE=-2.40D-06 OVMax= 2.36D-04

 Cycle   8  Pass 1  IDiag  1:
 E= -348.479950336127     Delta-E=       -0.000000302987 Rises=F Damp=F
 DIIS: error= 1.25D-05 at cycle   8 NSaved=   8.
 NSaved= 8 IEnMin= 8 EnMin= -348.479950336127     IErMin= 8 ErrMin= 1.25D-05
 ErrMax= 1.25D-05  0.00D+00 EMaxC= 1.00D-01 BMatC= 2.94D-08 BMatP= 1.99D-07
 IDIUse=1 WtCom= 1.00D+00 WtEn= 0.00D+00
 Coeff-Com:  0.419D-03-0.668D-03-0.341D-02-0.113D-01-0.238D-01-0.303D-01
 Coeff-Com:  0.293D+00 0.776D+00
 Coeff:      0.419D-03-0.668D-03-0.341D-02-0.113D-01-0.238D-01-0.303D-01
 Coeff:      0.293D+00 0.776D+00
 Gap=     0.290 Goal=   None    Shift=    0.000
 RMSDP=2.09D-06 MaxDP=4.31D-05 DE=-3.03D-07 OVMax= 1.14D-04

 Cycle   9  Pass 1  IDiag  1:
 E= -348.479950373894     Delta-E=       -0.000000037767 Rises=F Damp=F
 DIIS: error= 3.53D-06 at cycle   9 NSaved=   9.
 NSaved= 9 IEnMin= 9 EnMin= -348.479950373894     IErMin= 9 ErrMin= 3.53D-06
 ErrMax= 3.53D-06  0.00D+00 EMaxC= 1.00D-01 BMatC= 2.28D-09 BMatP= 2.94D-08
 IDIUse=1 WtCom= 1.00D+00 WtEn= 0.00D+00
 Coeff-Com: -0.257D-04 0.774D-04 0.653D-03 0.103D-02-0.312D-03-0.150D-01
 Coeff-Com: -0.747D-01 0.703D-01 0.102D+01
 Coeff:     -0.257D-04 0.774D-04 0.653D-03 0.103D-02-0.312D-03-0.150D-01
 Coeff:     -0.747D-01 0.703D-01 0.102D+01
 Gap=     0.290 Goal=   None    Shift=    0.000
 RMSDP=9.86D-07 MaxDP=2.37D-05 DE=-3.78D-08 OVMax= 4.46D-05

 Cycle  10  Pass 1  IDiag  1:
 E= -348.479950377442     Delta-E=       -0.000000003548 Rises=F Damp=F
 DIIS: error= 2.13D-06 at cycle  10 NSaved=  10.
 NSaved=10 IEnMin=10 EnMin= -348.479950377442     IErMin=10 ErrMin= 2.13D-06
 ErrMax= 2.13D-06  0.00D+00 EMaxC= 1.00D-01 BMatC= 7.30D-10 BMatP= 2.28D-09
 IDIUse=1 WtCom= 1.00D+00 WtEn= 0.00D+00
 Coeff-Com: -0.461D-04 0.929D-04 0.654D-03 0.148D-02 0.183D-02-0.569D-02
 Coeff-Com: -0.661D-01-0.274D-01 0.561D+00 0.535D+00
 Coeff:     -0.461D-04 0.929D-04 0.654D-03 0.148D-02 0.183D-02-0.569D-02
 Coeff:     -0.661D-01-0.274D-01 0.561D+00 0.535D+00
 Gap=     0.290 Goal=   None    Shift=    0.000
 RMSDP=2.18D-07 MaxDP=6.38D-06 DE=-3.55D-09 OVMax= 1.03D-05

 Cycle  11  Pass 1  IDiag  1:
 E= -348.479950378060     Delta-E=       -0.000000000619 Rises=F Damp=F
 DIIS: error= 3.16D-07 at cycle  11 NSaved=  11.
 NSaved=11 IEnMin=11 EnMin= -348.479950378060     IErMin=11 ErrMin= 3.16D-07
 ErrMax= 3.16D-07  0.00D+00 EMaxC= 1.00D-01 BMatC= 2.25D-11 BMatP= 7.30D-10
 IDIUse=1 WtCom= 1.00D+00 WtEn= 0.00D+00
 Coeff-Com: -0.403D-05 0.517D-05 0.492D-04 0.142D-03 0.433D-03 0.107D-02
 Coeff-Com: -0.293D-02-0.162D-01-0.358D-01 0.113D+00 0.940D+00
 Coeff:     -0.403D-05 0.517D-05 0.492D-04 0.142D-03 0.433D-03 0.107D-02
 Coeff:     -0.293D-02-0.162D-01-0.358D-01 0.113D+00 0.940D+00
 Gap=     0.290 Goal=   None    Shift=    0.000
 RMSDP=6.99D-08 MaxDP=1.24D-06 DE=-6.19D-10 OVMax= 3.58D-06

 Cycle  12  Pass 1  IDiag  1:
 E= -348.479950378086     Delta-E=       -0.000000000026 Rises=F Damp=F
 DIIS: error= 6.49D-08 at cycle  12 NSaved=  12.
 NSaved=12 IEnMin=12 EnMin= -348.479950378086     IErMin=12 ErrMin= 6.49D-08
 ErrMax= 6.49D-08  0.00D+00 EMaxC= 1.00D-01 BMatC= 4.03D-13 BMatP= 2.25D-11
 IDIUse=1 WtCom= 1.00D+00 WtEn= 0.00D+00
 Coeff-Com:  0.198D-05-0.402D-05-0.199D-04-0.521D-04-0.503D-04 0.160D-03
 Coeff-Com:  0.215D-02 0.215D-02-0.184D-01-0.254D-01-0.480D-01 0.109D+01
 Coeff:      0.198D-05-0.402D-05-0.199D-04-0.521D-04-0.503D-04 0.160D-03
 Coeff:      0.215D-02 0.215D-02-0.184D-01-0.254D-01-0.480D-01 0.109D+01
 Gap=     0.290 Goal=   None    Shift=    0.000
 RMSDP=1.22D-08 MaxDP=2.65D-07 DE=-2.60D-11 OVMax= 3.18D-07

 Cycle  13  Pass 1  IDiag  1:
 E= -348.479950378092     Delta-E=       -0.000000000006 Rises=F Damp=F
 DIIS: error= 4.25D-09 at cycle  13 NSaved=  13.
 NSaved=13 IEnMin=13 EnMin= -348.479950378092     IErMin=13 ErrMin= 4.25D-09
 ErrMax= 4.25D-09  0.00D+00 EMaxC= 1.00D-01 BMatC= 3.56D-15 BMatP= 4.03D-13
 IDIUse=1 WtCom= 1.00D+00 WtEn= 0.00D+00
 Coeff-Com: -0.500D-07 0.143D-06 0.114D-05 0.221D-05-0.339D-05-0.432D-04
 Coeff-Com: -0.149D-03 0.224D-03 0.248D-02-0.779D-03-0.192D-01-0.431D-01
 Coeff-Com:  0.106D+01
 Coeff:     -0.500D-07 0.143D-06 0.114D-05 0.221D-05-0.339D-05-0.432D-04
 Coeff:     -0.149D-03 0.224D-03 0.248D-02-0.779D-03-0.192D-01-0.431D-01
 Coeff:      0.106D+01
 Gap=     0.290 Goal=   None    Shift=    0.000
 RMSDP=1.21D-09 MaxDP=2.56D-08 DE=-6.03D-12 OVMax= 2.97D-08

 Error on total polarization charges =  0.00923
 SCF Done:  E(RM062X) =  -348.479950378     A.U. after   13 cycles
            NFock= 13  Conv=0.12D-08     -V/T= 2.0082
 KE= 3.456326575762D+02 PE=-1.304364903323D+03 EE= 3.627472507714D+02
 SMD-CDS (non-electrostatic) energy       (kcal/mol) =       1.29
 (included in total energy above)
 Leave Link  502 at Mon May 16 16:33:49 2022, MaxMem=  2147483648 cpu:       106.0
 (Enter /gpfs/runtime/opt/gaussian/g09-D01/g09/l601.exe)
 Copying SCF densities to generalized density rwf, IOpCl= 0 IROHF=0.

 **********************************************************************

            Population analysis using the SCF density.

 **********************************************************************

 Orbital symmetries:
       Occupied  (A) (A) (A) (A) (A) (A) (A) (A) (A) (A) (A) (A)
                 (A) (A) (A) (A) (A) (A) (A) (A) (A) (A) (A)
       Virtual   (A) (A) (A) (A) (A) (A) (A) (A) (A) (A) (A) (A)
                 (A) (A) (A) (A) (A) (A) (A) (A) (A) (A) (A) (A)
                 (A) (A) (A) (A) (A) (A) (A) (A) (A) (A) (A) (A)
                 (A) (A) (A) (A) (A) (A) (A) (A) (A) (A) (A) (A)
                 (A) (A) (A) (A) (A) (A) (A) (A) (A) (A) (A) (A)
                 (A) (A) (A) (A) (A) (A) (A) (A) (A) (A) (A) (A)
                 (A) (A) (A) (A) (A) (A) (A) (A) (A) (A) (A) (A)
                 (A) (A) (A) (A) (A) (A) (A) (A) (A) (A) (A) (A)
                 (A) (A) (A) (A) (A) (A) (A) (A) (A) (A) (A) (A)
                 (A) (A) (A) (A) (A) (A) (A) (A) (A) (A) (A) (A)
 The electronic state is 1-A.
 Alpha  occ. eigenvalues --  -19.75014 -19.74641 -19.65774 -10.75916 -10.62476
 Alpha  occ. eigenvalues --  -10.62354  -2.23105  -1.35053  -1.22370  -1.18224
 Alpha  occ. eigenvalues --   -0.89817  -0.77663  -0.75042  -0.64824  -0.63141
 Alpha  occ. eigenvalues --   -0.56910  -0.54844  -0.50568  -0.49559  -0.49015
 Alpha  occ. eigenvalues --   -0.45352  -0.40047  -0.31112
 Alpha virt. eigenvalues --   -0.02131   0.00169   0.00465   0.00551   0.01831
 Alpha virt. eigenvalues --    0.03734   0.03758   0.04646   0.05124   0.05266
 Alpha virt. eigenvalues --    0.05511   0.05910   0.06989   0.07401   0.08196
 Alpha virt. eigenvalues --    0.09606   0.09706   0.10645   0.13324   0.14368
 Alpha virt. eigenvalues --    0.15374   0.16343   0.17356   0.17819   0.18970
 Alpha virt. eigenvalues --    0.21355   0.22727   0.24213   0.24611   0.25657
 Alpha virt. eigenvalues --    0.25843   0.27155   0.29221   0.29356   0.29822
 Alpha virt. eigenvalues --    0.30671   0.31164   0.31979   0.35130   0.36184
 Alpha virt. eigenvalues --    0.39272   0.41238   0.43106   0.48334   0.51035
 Alpha virt. eigenvalues --    0.51974   0.52022   0.53014   0.54925   0.58704
 Alpha virt. eigenvalues --    0.65962   0.70647   0.71233   0.74222   0.76203
 Alpha virt. eigenvalues --    0.83655   0.90366   0.91098   0.92765   0.94956
 Alpha virt. eigenvalues --    1.00036   1.09000   1.17469   1.18642   1.21425
 Alpha virt. eigenvalues --    1.23380   1.26006   1.28899   1.30333   1.34144
 Alpha virt. eigenvalues --    1.35195   1.35328   1.35432   1.36988   1.40273
 Alpha virt. eigenvalues --    1.43850   1.43979   1.48183   1.48570   1.58200
 Alpha virt. eigenvalues --    1.63263   1.68406   1.80260   1.81950   1.83776
 Alpha virt. eigenvalues --    1.90084   1.91723   1.96006   1.99185   2.05312
 Alpha virt. eigenvalues --    2.08100   2.12602   2.13543   2.23184   2.23595
 Alpha virt. eigenvalues --    2.33277   2.35593   2.43887   2.53938   2.57019
 Alpha virt. eigenvalues --    2.64102   2.70017   2.72748   2.74788   2.78612
 Alpha virt. eigenvalues --    2.82540   2.93506   2.98756   3.05859   3.09878
 Alpha virt. eigenvalues --    3.22137   3.25811   3.39844   3.72237   4.20835
 Alpha virt. eigenvalues --    4.30759   4.57537   4.64507   4.65825   4.69095
          Condensed to atoms (all electrons):
               1          2          3          4          5          6
     1  O    8.279378   0.466501  -0.110499  -0.003935   0.037724  -0.103664
     2  C    0.466501   4.544005   0.170620  -0.092883  -0.141265   0.242608
     3  O   -0.110499   0.170620   8.439318   0.133792  -0.061628  -0.171299
     4  C   -0.003935  -0.092883   0.133792   4.999135   0.624968  -0.081730
     5  C    0.037724  -0.141265  -0.061628   0.624968   5.110347   0.166118
     6  O   -0.103664   0.242608  -0.171299  -0.081730   0.166118   8.333825
     7  H    0.000001   0.013169  -0.033869   0.358525  -0.004949   0.002440
     8  H    0.000001   0.012722   0.001715  -0.028182   0.380576  -0.030797
     9  Li  -0.002793   0.000582   0.007503  -0.002924  -0.003772  -0.001004
               7          8          9
     1  O    0.000001   0.000001  -0.002793
     2  C    0.013169   0.012722   0.000582
     3  O   -0.033869   0.001715   0.007503
     4  C    0.358525  -0.028182  -0.002924
     5  C   -0.004949   0.380576  -0.003772
     6  O    0.002440  -0.030797  -0.001004
     7  H    0.401315   0.000211  -0.000906
     8  H    0.000211   0.402207  -0.000019
     9  Li  -0.000906  -0.000019   2.003160
 Mulliken charges:
               1
     1  O   -0.562713
     2  C    0.783941
     3  O   -0.375652
     4  C    0.093235
     5  C   -0.108118
     6  O   -0.356496
     7  H    0.264064
     8  H    0.261566
     9  Li   1.000174
 Sum of Mulliken charges =   1.00000
 Mulliken charges with hydrogens summed into heavy atoms:
               1
     1  O   -0.562713
     2  C    0.783941
     3  O   -0.375652
     4  C    0.357299
     5  C    0.153448
     6  O   -0.356496
     9  Li   1.000174
 Electronic spatial extent (au):  <R**2>=            535.5376
 Charge=              1.0000 electrons
 Dipole moment (field-independent basis, Debye):
    X=             21.0516    Y=              1.0764    Z=              0.0076  Tot=             21.0791
 Quadrupole moment (field-independent basis, Debye-Ang):
   XX=             38.5119   YY=            -27.2641   ZZ=            -33.8087
   XY=            -21.2542   XZ=             -0.0033   YZ=              0.0094
 Traceless Quadrupole moment (field-independent basis, Debye-Ang):
   XX=             46.0322   YY=            -19.7437   ZZ=            -26.2884
   XY=            -21.2542   XZ=             -0.0033   YZ=              0.0094
 Octapole moment (field-independent basis, Debye-Ang**2):
  XXX=            318.5840  YYY=             18.3393  ZZZ=             -0.0163  XYY=             33.8806
  XXY=            -70.5360  XXZ=              0.0191  XZZ=              5.8193  YZZ=             -5.3573
  YYZ=              0.0157  XYZ=             -0.0260
 Hexadecapole moment (field-independent basis, Debye-Ang**3):
 XXXX=            904.5454 YYYY=           -272.7228 ZZZZ=            -32.1171 XXXY=           -321.4968
 XXXZ=              0.0846 YYYX=            -63.6873 YYYZ=              0.0811 ZZZX=              0.0003
 ZZZY=             -0.0233 XXYY=             -3.1320 XXZZ=            -43.0856 YYZZ=            -60.3068
 XXYZ=             -0.0282 YYXZ=             -0.0048 ZZXY=             -8.6937
 N-N= 2.475050445970D+02 E-N=-1.304364903335D+03  KE= 3.456326575762D+02
 No NMR shielding tensors so no spin-rotation constants.
 Leave Link  601 at Mon May 16 16:33:50 2022, MaxMem=  2147483648 cpu:         2.8
 (Enter /gpfs/runtime/opt/gaussian/g09-D01/g09/l701.exe)
 Compute integral first derivatives.
 ... and contract with generalized density number  0.
 R6Disp: Adding Grimme-D3 dispersion energy 1st derivatives to the gradient.
 D1PCM: PCM CHGder 1st derivatives, ID1Alg=3 FixD1E=F DoIter=F DoCFld=F I1PDM=0.
 GePol: Maximum number of non-zero 1st derivatives   =     319
 Leave Link  701 at Mon May 16 16:33:52 2022, MaxMem=  2147483648 cpu:        10.9
 (Enter /gpfs/runtime/opt/gaussian/g09-D01/g09/l702.exe)
 L702 exits ... SP integral derivatives will be done elsewhere.
 Leave Link  702 at Mon May 16 16:33:52 2022, MaxMem=  2147483648 cpu:         0.1
 (Enter /gpfs/runtime/opt/gaussian/g09-D01/g09/l703.exe)
 Compute integral first derivatives, UseDBF=F ICtDFT=           0.
 Integral derivatives from FoFJK, PRISM(SPDF).
 Calling FoFJK, ICntrl=      2127 FMM=F ISym2X=0 I1Cent= 0 IOpClX= 0 NMat=1 NMatS=1 NMatT=0.
 FoFJK:  IHMeth= 1 ICntrl=    2127 DoSepK=F KAlg= 0 I1Cent=   0 FoldK=F
 IRaf=         0 NMat=   1 IRICut=       1 DoRegI=T DoRafI=F ISym2E= 0.
 FoFCou: FMM=F IPFlag=           0 FMFlag=      100000 FMFlg1=         800
         NFxFlg=           0 DoJE=F BraDBF=F KetDBF=F FulRan=T
         wScrn=  0.000000 ICntrl=    2127 IOpCl=  0 I1Cent=           0 NGrid=           0
         NMat0=    1 NMatS0=      1 NMatT0=    0 NMatD0=    1 NMtDS0=    0 NMtDT0=    0
 Symmetry not used in FoFCou.
 Leave Link  703 at Mon May 16 16:33:54 2022, MaxMem=  2147483648 cpu:        10.3
 (Enter /gpfs/runtime/opt/gaussian/g09-D01/g09/l716.exe)
 Dipole        = 8.28235281D+00 4.23494899D-01 2.97189166D-03
 ***** Axes restored to original set *****
 -------------------------------------------------------------------
 Center     Atomic                   Forces (Hartrees/Bohr)
 Number     Number              X              Y              Z
 -------------------------------------------------------------------
      1        8           0.028386551    0.000393854   -0.000195242
      2        6          -0.031640258   -0.002849156    0.000823303
      3        8          -0.015384585    0.021951385   -0.000105069
      4        6           0.027294790   -0.012014175   -0.000253157
      5        6           0.024717373    0.011211893    0.000426053
      6        8          -0.015240804   -0.019225326   -0.000679596
      7        1          -0.008628559    0.010423478   -0.000065391
      8        1          -0.008950612   -0.010663801    0.000045068
      9        3          -0.000553896    0.000771848    0.000004029
 -------------------------------------------------------------------
 Cartesian Forces:  Max     0.031640258 RMS     0.013798677
 Leave Link  716 at Mon May 16 16:33:55 2022, MaxMem=  2147483648 cpu:         0.2
 (Enter /gpfs/runtime/opt/gaussian/g09-D01/g09/l103.exe)

 GradGradGradGradGradGradGradGradGradGradGradGradGradGradGradGradGradGrad
 Berny optimization.
 FormGI is forming the generalized inverse of G from B-inverse, IUseBI=4.
 Internal  Forces:  Max     0.028377609 RMS     0.008471159
 Search for a local minimum.
 Step number   1 out of a maximum of   48
 All quantities printed in internal units (Hartrees-Bohrs-Radians)
 RMS Force = .84712D-02 SwitMx=.10000D-02 MixMth= 1
 Mixed Optimization -- RFO/linear search
 Second derivative matrix not updated -- first step.
 ITU=  0
     Eigenvalues ---    0.01339   0.02370   0.02419   0.02450   0.02613
     Eigenvalues ---    0.02669   0.02868   0.16000   0.16000   0.22684
     Eigenvalues ---    0.24747   0.25000   0.25000   0.35990   0.35990
     Eigenvalues ---    0.47828   0.49378   0.54297   0.55988   0.59632
     Eigenvalues ---    0.97314
 RFO step:  Lambda=-7.67765960D-03 EMin= 1.33948100D-02
 Linear search not attempted -- first point.
 Iteration  1 RMS(Cart)=  0.04064987 RMS(Int)=  0.00163585
 Iteration  2 RMS(Cart)=  0.00151304 RMS(Int)=  0.00010809
 Iteration  3 RMS(Cart)=  0.00000030 RMS(Int)=  0.00010809
 ITry= 1 IFail=0 DXMaxC= 1.59D-01 DCOld= 1.00D+10 DXMaxT= 3.00D-01 DXLimC= 3.00D+00 Rises=F
 Variable       Old X    -DE/DX   Delta X   Delta X   Delta X     New X
                                 (Linear)    (Quad)   (Total)
    R1        2.29734  -0.02838   0.00000  -0.02893  -0.02893   2.26841
    R2        2.53737   0.00920   0.00000   0.01527   0.01528   2.55265
    R3        2.53738   0.00660   0.00000   0.01038   0.01038   2.54776
    R4        2.56151   0.02121   0.00000   0.03949   0.03950   2.60101
    R5        6.14368   0.00069   0.00000   0.03256   0.03256   6.17625
    R6        2.50087   0.01132   0.00000   0.01938   0.01938   2.52024
    R7        2.04097  -0.00088   0.00000  -0.00240  -0.00240   2.03857
    R8        2.56152   0.01921   0.00000   0.03524   0.03522   2.59675
    R9        2.04097  -0.00100   0.00000  -0.00273  -0.00273   2.03823
    A1        2.20111  -0.00313   0.00000  -0.01034  -0.01036   2.19076
    A2        2.20111  -0.00212   0.00000  -0.00640  -0.00643   2.19469
    A3        1.88095   0.00525   0.00000   0.01679   0.01678   1.89773
    A4        1.88375  -0.00237   0.00000  -0.00928  -0.00926   1.87449
    A5        2.66966  -0.00065   0.00000  -0.00249  -0.00249   2.66717
    A6        1.72977   0.00302   0.00000   0.01176   0.01176   1.74153
    A7        1.88816  -0.00136   0.00000  -0.00169  -0.00170   1.88646
    A8        2.19754  -0.01307   0.00000  -0.08112  -0.08112   2.11642
    A9        2.19748   0.01442   0.00000   0.08282   0.08282   2.28030
   A10        1.88815  -0.00001   0.00000   0.00299   0.00296   1.89111
   A11        2.19748   0.01422   0.00000   0.08330   0.08331   2.28079
   A12        2.19754  -0.01421   0.00000  -0.08627  -0.08627   2.11128
   A13        1.88374  -0.00151   0.00000  -0.00873  -0.00875   1.87498
    D1        3.14123   0.00017   0.00000   0.00510   0.00508  -3.13688
    D2       -0.00519   0.00017   0.00000   0.00511   0.00506  -0.00013
    D3        0.00424  -0.00017   0.00000  -0.00550  -0.00550  -0.00126
    D4        3.14101  -0.00017   0.00000  -0.00549  -0.00552   3.13549
    D5        3.13939  -0.00003   0.00000  -0.00104  -0.00110   3.13829
    D6       -0.00681   0.00031   0.00000   0.00956   0.00949   0.00268
    D7        0.00001  -0.00002   0.00000  -0.00069  -0.00071  -0.00070
    D8        3.14103   0.00002   0.00000   0.00053   0.00037   3.14140
    D9       -3.13937  -0.00002   0.00000  -0.00068  -0.00069  -3.14005
   D10        0.00166   0.00003   0.00000   0.00054   0.00039   0.00205
   D11       -0.00422   0.00023   0.00000   0.00662   0.00658   0.00236
   D12        3.14102   0.00002   0.00000   0.00010  -0.00013   3.14089
   D13        3.13794   0.00020   0.00000   0.00548   0.00543  -3.13981
   D14        0.00000  -0.00001   0.00000  -0.00105  -0.00128  -0.00128
   D15        0.00686  -0.00034   0.00000  -0.01010  -0.00999  -0.00313
   D16       -3.13838  -0.00005   0.00000  -0.00312  -0.00363   3.14117
         Item               Value     Threshold  Converged?
 Maximum Force            0.028378     0.000450     NO 
 RMS     Force            0.008471     0.000300     NO 
 Maximum Displacement     0.159344     0.001800     NO 
 RMS     Displacement     0.040316     0.001200     NO 
 Predicted change in Energy=-3.970840D-03
 Lowest energy point so far.  Saving SCF results.
 GradGradGradGradGradGradGradGradGradGradGradGradGradGradGradGradGradGrad

 Leave Link  103 at Mon May 16 16:33:57 2022, MaxMem=  2147483648 cpu:        11.6
 (Enter /gpfs/runtime/opt/gaussian/g09-D01/g09/l202.exe)
                          Input orientation:                          
 ---------------------------------------------------------------------
 Center     Atomic      Atomic             Coordinates (Angstroms)
 Number     Number       Type             X           Y           Z
 ---------------------------------------------------------------------
      1          8           0       -1.909189    0.003964   -0.001309
      2          6           0       -0.708814   -0.001153    0.001835
      3          8           0        0.080687    1.094911    0.002364
      4          6           0        1.386977    0.661246    0.000191
      5          6           0        1.380484   -0.672394   -0.000716
      6          8           0        0.074149   -1.098711   -0.002209
      7          1           0        2.208829    1.360024   -0.000035
      8          1           0        2.195013   -1.379421   -0.002944
      9          3           0        0.568464    4.326634   -0.001077
 ---------------------------------------------------------------------
                    Distance matrix (angstroms):
                    1          2          3          4          5
     1  O    0.000000
     2  C    1.200390   0.000000
     3  O    2.269314   1.350803   0.000000
     4  C    3.361061   2.197980   1.376395   0.000000
     5  C    3.358483   2.194479   2.193820   1.333656   0.000000
     6  O    2.269256   1.348214   2.193637   2.195671   1.374140
     7  H    4.335547   3.219541   2.144592   1.078764   2.194738
     8  H    4.331078   3.214321   3.254646   2.194825   1.078587
     9  Li   4.982393   4.512338   3.268328   3.755667   5.064549
                    6          7          8          9
     6  O    0.000000
     7  H    3.256108   0.000000
     8  H    2.139361   2.739481   0.000000
     9  Li   5.447818   3.389922   5.933357   0.000000
 Stoichiometry    C3H2LiO3(1+)
 Framework group  C1[X(C3H2LiO3)]
 Deg. of freedom    21
 Full point group                 C1      NOp   1
 RotChk:  IX=1 Diff= 7.68D-02
 Largest Abelian subgroup         C1      NOp   1
 Largest concise Abelian subgroup C1      NOp   1
                         Standard orientation:                         
 ---------------------------------------------------------------------
 Center     Atomic      Atomic             Coordinates (Angstroms)
 Number     Number       Type             X           Y           Z
 ---------------------------------------------------------------------
      1          8           0       -0.910112   -1.805050    0.001098
      2          6           0       -0.522664   -0.668912   -0.002091
      3          8           0        0.771229   -0.280953   -0.002159
      4          6           0        0.788270    1.095334   -0.000225
      5          6           0       -0.474266    1.525032    0.000088
      6          8           0       -1.304087    0.429745    0.001437
      7          1           0        1.717262    1.643700    0.000282
      8          1           0       -0.876285    2.525896    0.001972
      9          3           0        3.984913   -0.876087    0.002703
 ---------------------------------------------------------------------
 Rotational constants (GHZ):      4.2824629      2.8279989      1.7032395
 Leave Link  202 at Mon May 16 16:33:57 2022, MaxMem=  2147483648 cpu:         0.5
 (Enter /gpfs/runtime/opt/gaussian/g09-D01/g09/l301.exe)
 Standard basis: 6-31+G(d,p) (6D, 7F)
 Ernie: Thresh=  0.10000D-02 Tol=  0.10000D-05 Strict=F.
 There are   143 symmetry adapted cartesian basis functions of A   symmetry.
 There are   143 symmetry adapted basis functions of A   symmetry.
   143 basis functions,   238 primitive gaussians,   143 cartesian basis functions
    23 alpha electrons       23 beta electrons
       nuclear repulsion energy       246.4152585898 Hartrees.
 IExCor= 4336 DFT=T Ex+Corr=M062X ExCW=0 ScaHFX=  0.540000
 ScaDFX=  1.000000  1.000000  1.000000  1.000000 ScalE2=  1.000000  1.000000
 IRadAn=      0 IRanWt=     -1 IRanGd=            0 ICorTp=0 IEmpDi=131
 NAtoms=    9 NActive=    9 NUniq=    9 SFac= 1.00D+00 NAtFMM=   60 NAOKFM=F Big=F
 Integral buffers will be    131072 words long.
 Raffenetti 2 integral format.
 Two-electron integral symmetry is turned on.
 R6Disp:  Grimme-D3 Dispersion energy=       -0.0001919041 Hartrees.
 Nuclear repulsion after empirical dispersion term =      246.4150666857 Hartrees.
 ------------------------------------------------------------------------------
 Polarizable Continuum Model (PCM)
 =================================
 Model                : PCM (using non-symmetric T matrix).
 Atomic radii         : SMD-Coulomb.
 Polarization charges : Total charges.
 Charge compensation  : None.
 Solution method      : On-the-fly selection.
 Cavity type          : VdW (van der Waals Surface) (Alpha=1.000).
 Cavity algorithm     : GePol (No added spheres)
                        Default sphere list used, NSphG=    9.
                        Lebedev-Laikov grids with approx.  5.0 points / Ang**2.
                        Smoothing algorithm: Karplus/York (Gamma=1.0000).
                        Polarization charges: spherical gaussians, with
                                              point-specific exponents (IZeta= 3).
                        Self-potential: point-specific (ISelfS= 7).
                        Self-field    : sphere-specific E.n sum rule (ISelfD= 2).
 1st derivatives      : Analytical E(r).r(x)/FMM algorithm (CHGder, D1EAlg=3).
                        Cavity 1st derivative terms included.
 Solvent              : DiMethylSulfoxide, Eps=  46.826000 Eps(inf)=   2.007889
 ------------------------------------------------------------------------------
 Spheres list:
 ISph  on   Nord     Re0    Alpha      Xe            Ye            Ze
    1   O      1    2.2940  1.000     -0.910112     -1.805050      0.001098
    2   C      2    1.8500  1.000     -0.522664     -0.668912     -0.002091
    3   O      3    2.2940  1.000      0.771229     -0.280953     -0.002159
    4   C      4    1.8500  1.000      0.788270      1.095334     -0.000225
    5   C      5    1.8500  1.000     -0.474266      1.525032      0.000088
    6   O      6    2.2940  1.000     -1.304087      0.429745      0.001437
    7   H      7    1.2000  1.000      1.717262      1.643700      0.000282
    8   H      8    1.2000  1.000     -0.876285      2.525896      0.001972
    9  Li      9    1.8200  1.000      3.984913     -0.876087      0.002703
 ------------------------------------------------------------------------------
 GePol: Number of generator spheres                  =       9
 GePol: Total number of spheres                      =       9
 GePol: Number of exposed spheres                    =       9 (100.00%)
 GePol: Number of points                             =    1236
 GePol: Average weight of points                     =       0.13
 GePol: Minimum weight of points                     =   0.14D-08
 GePol: Maximum weight of points                     =    0.17992
 GePol: Number of points with low weight             =      32
 GePol: Fraction of low-weight points (<1% of avg)   =       2.59%
 GePol: Cavity surface area                          =    161.294 Ang**2
 GePol: Cavity volume                                =    146.598 Ang**3
 ------------------------------------------------------------------------------
 Atomic radii for non-electrostatic terms: SMD-CDS.
 ------------------------------------------------------------------------------
 PCM non-electrostatic energy =         0.0022197109 Hartrees.
 Nuclear repulsion after PCM non-electrostatic terms =      246.4172863966 Hartrees.
 Leave Link  301 at Mon May 16 16:33:57 2022, MaxMem=  2147483648 cpu:         0.4
 (Enter /gpfs/runtime/opt/gaussian/g09-D01/g09/l302.exe)
 NPDir=0 NMtPBC=     1 NCelOv=     1 NCel=       1 NClECP=     1 NCelD=      1
         NCelK=      1 NCelE2=     1 NClLst=     1 CellRange=     0.0.
 One-electron integrals computed using PRISM.
 NBasis=   143 RedAO= T EigKep=  4.70D-05  NBF=   143
 NBsUse=   143 1.00D-06 EigRej= -1.00D+00 NBFU=   143
 Precomputing XC quadrature grid using
 IXCGrd= 4 IRadAn=           0 IRanWt=          -1 IRanGd=           0 AccXCQ= 0.00D+00.
 Generated NRdTot=       0 NPtTot=           0 NUsed=           0 NTot=          32
 NSgBfM=   143   143   143   143   143 MxSgAt=     9 MxSgA2=     9.
 Leave Link  302 at Mon May 16 16:33:59 2022, MaxMem=  2147483648 cpu:         4.8
 (Enter /gpfs/runtime/opt/gaussian/g09-D01/g09/l303.exe)
 DipDrv:  MaxL=1.
 Leave Link  303 at Mon May 16 16:33:59 2022, MaxMem=  2147483648 cpu:         0.9
 (Enter /gpfs/runtime/opt/gaussian/g09-D01/g09/l401.exe)
 Initial guess from the checkpoint file:  "/gpfs/data/yqi27/cgu13/CHEM1560Q/Gaussian/872-36-6/inp2/Gau-224105.chk"
 B after Tr=     0.000000    0.000000    0.000000
         Rot=    0.999642    0.000027   -0.000017   -0.026742 Ang=   3.06 deg.
 Guess basis will be translated and rotated to current coordinates.
 JPrj=2 DoOrth=T DoCkMO=T.
 Generating alternative initial guess.
 ExpMin= 7.40D-03 ExpMax= 5.48D+03 ExpMxC= 8.25D+02 IAcc=3 IRadAn=         5 AccDes= 0.00D+00
 Harris functional with IExCor= 1009 and IRadAn=       5 diagonalized for initial guess.
 HarFok:  IExCor= 1009 AccDes= 0.00D+00 IRadAn=         5 IDoV= 1 UseB2=F ITyADJ=14
 ICtDFT=  3500011 ScaDFX=  1.000000  1.000000  1.000000  1.000000
 FoFCou: FMM=F IPFlag=           0 FMFlag=      100000 FMFlg1=           0
         NFxFlg=           0 DoJE=T BraDBF=F KetDBF=T FulRan=T
         wScrn=  0.000000 ICntrl=     500 IOpCl=  0 I1Cent=   200000004 NGrid=           0
         NMat0=    1 NMatS0=      1 NMatT0=    0 NMatD0=    1 NMtDS0=    0 NMtDT0=    0
 Petite list used in FoFCou.
 Harris En= -348.216116603823    
 Leave Link  401 at Mon May 16 16:34:02 2022, MaxMem=  2147483648 cpu:        12.6
 (Enter /gpfs/runtime/opt/gaussian/g09-D01/g09/l502.exe)
 Closed shell SCF:
 Using DIIS extrapolation, IDIIS=  1040.
 Integral symmetry usage will be decided dynamically.
 Keep R1 ints in memory in canonical form, NReq=57756241.
 IVT=       82101 IEndB=       82101 NGot=  2147483648 MDV=  2094392592
 LenX=  2094392592 LenY=  2094371702
 Requested convergence on RMS density matrix=1.00D-08 within 128 cycles.
 Requested convergence on MAX density matrix=1.00D-06.
 Requested convergence on             energy=1.00D-06.
 No special actions if energy rises.
 FoFCou: FMM=F IPFlag=           0 FMFlag=           0 FMFlg1=           0
         NFxFlg=           0 DoJE=F BraDBF=F KetDBF=F FulRan=T
         wScrn=  0.000000 ICntrl=     600 IOpCl=  0 I1Cent=           0 NGrid=           0
         NMat0=    1 NMatS0=  10296 NMatT0=    0 NMatD0=    1 NMtDS0=    0 NMtDT0=    0
 Symmetry not used in FoFCou.

 Cycle   1  Pass 1  IDiag  1:
 Inv3:  Mode=1 IEnd=     4583088.
 Iteration    1 A*A^-1 deviation from unit magnitude is 5.33D-15 for    125.
 Iteration    1 A*A^-1 deviation from orthogonality  is 4.40D-15 for    855    135.
 Iteration    1 A^-1*A deviation from unit magnitude is 6.00D-15 for    192.
 Iteration    1 A^-1*A deviation from orthogonality  is 8.55D-12 for    691    383.
 E= -348.483467835786    
 DIIS: error= 2.77D-03 at cycle   1 NSaved=   1.
 NSaved= 1 IEnMin= 1 EnMin= -348.483467835786     IErMin= 1 ErrMin= 2.77D-03
 ErrMax= 2.77D-03  0.00D+00 EMaxC= 1.00D-01 BMatC= 9.02D-04 BMatP= 9.02D-04
 IDIUse=3 WtCom= 9.72D-01 WtEn= 2.77D-02
 Coeff-Com:  0.100D+01
 Coeff-En:   0.100D+01
 Coeff:      0.100D+01
 Gap=     0.601 Goal=   None    Shift=    0.000
 GapD=    0.601 DampG=2.000 DampE=1.000 DampFc=2.0000 IDamp=-1.
 RMSDP=6.26D-04 MaxDP=1.43D-02              OVMax= 8.80D-03

 Cycle   2  Pass 1  IDiag  1:
 E= -348.484668208416     Delta-E=       -0.001200372630 Rises=F Damp=F
 DIIS: error= 5.87D-04 at cycle   2 NSaved=   2.
 NSaved= 2 IEnMin= 2 EnMin= -348.484668208416     IErMin= 2 ErrMin= 5.87D-04
 ErrMax= 5.87D-04  0.00D+00 EMaxC= 1.00D-01 BMatC= 6.61D-05 BMatP= 9.02D-04
 IDIUse=3 WtCom= 9.94D-01 WtEn= 5.87D-03
 Coeff-Com:  0.404D-01 0.960D+00
 Coeff-En:   0.000D+00 0.100D+01
 Coeff:      0.402D-01 0.960D+00
 Gap=     0.292 Goal=   None    Shift=    0.000
 RMSDP=1.36D-04 MaxDP=3.23D-03 DE=-1.20D-03 OVMax= 6.30D-03

 Cycle   3  Pass 1  IDiag  1:
 E= -348.484699455327     Delta-E=       -0.000031246911 Rises=F Damp=F
 DIIS: error= 6.07D-04 at cycle   3 NSaved=   3.
 NSaved= 3 IEnMin= 3 EnMin= -348.484699455327     IErMin= 2 ErrMin= 5.87D-04
 ErrMax= 6.07D-04  0.00D+00 EMaxC= 1.00D-01 BMatC= 6.79D-05 BMatP= 6.61D-05
 IDIUse=3 WtCom= 9.94D-01 WtEn= 6.07D-03
 Coeff-Com: -0.585D-01 0.520D+00 0.539D+00
 Coeff-En:   0.000D+00 0.312D+00 0.688D+00
 Coeff:     -0.581D-01 0.518D+00 0.540D+00
 Gap=     0.291 Goal=   None    Shift=    0.000
 RMSDP=5.69D-05 MaxDP=1.51D-03 DE=-3.12D-05 OVMax= 1.92D-03

 Cycle   4  Pass 1  IDiag  1:
 E= -348.484748635653     Delta-E=       -0.000049180326 Rises=F Damp=F
 DIIS: error= 1.50D-04 at cycle   4 NSaved=   4.
 NSaved= 4 IEnMin= 4 EnMin= -348.484748635653     IErMin= 4 ErrMin= 1.50D-04
 ErrMax= 1.50D-04  0.00D+00 EMaxC= 1.00D-01 BMatC= 3.21D-06 BMatP= 6.61D-05
 IDIUse=3 WtCom= 9.99D-01 WtEn= 1.50D-03
 Coeff-Com: -0.245D-01 0.107D+00 0.215D+00 0.703D+00
 Coeff-En:   0.000D+00 0.000D+00 0.000D+00 0.100D+01
 Coeff:     -0.245D-01 0.107D+00 0.214D+00 0.703D+00
 Gap=     0.291 Goal=   None    Shift=    0.000
 RMSDP=1.42D-05 MaxDP=5.05D-04 DE=-4.92D-05 OVMax= 6.98D-04

 Cycle   5  Pass 1  IDiag  1:
 E= -348.484751457413     Delta-E=       -0.000002821760 Rises=F Damp=F
 DIIS: error= 4.82D-05 at cycle   5 NSaved=   5.
 NSaved= 5 IEnMin= 5 EnMin= -348.484751457413     IErMin= 5 ErrMin= 4.82D-05
 ErrMax= 4.82D-05  0.00D+00 EMaxC= 1.00D-01 BMatC= 4.25D-07 BMatP= 3.21D-06
 IDIUse=1 WtCom= 1.00D+00 WtEn= 0.00D+00
 Coeff-Com: -0.244D-02-0.163D-01 0.149D-01 0.288D+00 0.716D+00
 Coeff:     -0.244D-02-0.163D-01 0.149D-01 0.288D+00 0.716D+00
 Gap=     0.291 Goal=   None    Shift=    0.000
 RMSDP=5.84D-06 MaxDP=1.34D-04 DE=-2.82D-06 OVMax= 3.08D-04

 Cycle   6  Pass 1  IDiag  1:
 E= -348.484751890791     Delta-E=       -0.000000433378 Rises=F Damp=F
 DIIS: error= 1.21D-05 at cycle   6 NSaved=   6.
 NSaved= 6 IEnMin= 6 EnMin= -348.484751890791     IErMin= 6 ErrMin= 1.21D-05
 ErrMax= 1.21D-05  0.00D+00 EMaxC= 1.00D-01 BMatC= 3.48D-08 BMatP= 4.25D-07
 IDIUse=1 WtCom= 1.00D+00 WtEn= 0.00D+00
 Coeff-Com:  0.235D-02-0.176D-01-0.309D-01 0.390D-03 0.180D+00 0.866D+00
 Coeff:      0.235D-02-0.176D-01-0.309D-01 0.390D-03 0.180D+00 0.866D+00
 Gap=     0.291 Goal=   None    Shift=    0.000
 RMSDP=2.20D-06 MaxDP=4.72D-05 DE=-4.33D-07 OVMax= 1.26D-04

 Cycle   7  Pass 1  IDiag  1:
 E= -348.484751935625     Delta-E=       -0.000000044834 Rises=F Damp=F
 DIIS: error= 5.69D-06 at cycle   7 NSaved=   7.
 NSaved= 7 IEnMin= 7 EnMin= -348.484751935625     IErMin= 7 ErrMin= 5.69D-06
 ErrMax= 5.69D-06  0.00D+00 EMaxC= 1.00D-01 BMatC= 6.72D-09 BMatP= 3.48D-08
 IDIUse=1 WtCom= 1.00D+00 WtEn= 0.00D+00
 Coeff-Com:  0.119D-02-0.564D-02-0.168D-01-0.230D-01 0.934D-02 0.371D+00
 Coeff-Com:  0.664D+00
 Coeff:      0.119D-02-0.564D-02-0.168D-01-0.230D-01 0.934D-02 0.371D+00
 Coeff:      0.664D+00
 Gap=     0.291 Goal=   None    Shift=    0.000
 RMSDP=8.26D-07 MaxDP=1.90D-05 DE=-4.48D-08 OVMax= 3.30D-05

 Cycle   8  Pass 1  IDiag  1:
 E= -348.484751942442     Delta-E=       -0.000000006817 Rises=F Damp=F
 DIIS: error= 1.43D-06 at cycle   8 NSaved=   8.
 NSaved= 8 IEnMin= 8 EnMin= -348.484751942442     IErMin= 8 ErrMin= 1.43D-06
 ErrMax= 1.43D-06  0.00D+00 EMaxC= 1.00D-01 BMatC= 6.97D-10 BMatP= 6.72D-09
 IDIUse=1 WtCom= 1.00D+00 WtEn= 0.00D+00
 Coeff-Com:  0.258D-04 0.115D-02-0.163D-02-0.598D-02-0.241D-01-0.173D-01
 Coeff-Com:  0.212D+00 0.836D+00
 Coeff:      0.258D-04 0.115D-02-0.163D-02-0.598D-02-0.241D-01-0.173D-01
 Coeff:      0.212D+00 0.836D+00
 Gap=     0.291 Goal=   None    Shift=    0.000
 RMSDP=3.21D-07 MaxDP=6.36D-06 DE=-6.82D-09 OVMax= 1.82D-05

 Cycle   9  Pass 1  IDiag  1:
 E= -348.484751943236     Delta-E=       -0.000000000794 Rises=F Damp=F
 DIIS: error= 6.18D-07 at cycle   9 NSaved=   9.
 NSaved= 9 IEnMin= 9 EnMin= -348.484751943236     IErMin= 9 ErrMin= 6.18D-07
 ErrMax= 6.18D-07  0.00D+00 EMaxC= 1.00D-01 BMatC= 9.79D-11 BMatP= 6.97D-10
 IDIUse=1 WtCom= 1.00D+00 WtEn= 0.00D+00
 Coeff-Com: -0.113D-03 0.118D-02 0.945D-03-0.398D-03-0.129D-01-0.501D-01
 Coeff-Com:  0.234D-01 0.368D+00 0.670D+00
 Coeff:     -0.113D-03 0.118D-02 0.945D-03-0.398D-03-0.129D-01-0.501D-01
 Coeff:      0.234D-01 0.368D+00 0.670D+00
 Gap=     0.291 Goal=   None    Shift=    0.000
 RMSDP=1.06D-07 MaxDP=2.27D-06 DE=-7.94D-10 OVMax= 4.26D-06

 Cycle  10  Pass 1  IDiag  1:
 E= -348.484751943329     Delta-E=       -0.000000000093 Rises=F Damp=F
 DIIS: error= 2.59D-07 at cycle  10 NSaved=  10.
 NSaved=10 IEnMin=10 EnMin= -348.484751943329     IErMin=10 ErrMin= 2.59D-07
 ErrMax= 2.59D-07  0.00D+00 EMaxC= 1.00D-01 BMatC= 1.02D-11 BMatP= 9.79D-11
 IDIUse=1 WtCom= 1.00D+00 WtEn= 0.00D+00
 Coeff-Com: -0.478D-04 0.362D-03 0.541D-03 0.554D-03-0.267D-02-0.180D-01
 Coeff-Com: -0.127D-01 0.575D-01 0.285D+00 0.689D+00
 Coeff:     -0.478D-04 0.362D-03 0.541D-03 0.554D-03-0.267D-02-0.180D-01
 Coeff:     -0.127D-01 0.575D-01 0.285D+00 0.689D+00
 Gap=     0.291 Goal=   None    Shift=    0.000
 RMSDP=3.36D-08 MaxDP=1.03D-06 DE=-9.30D-11 OVMax= 1.14D-06

 Cycle  11  Pass 1  IDiag  1:
 E= -348.484751943341     Delta-E=       -0.000000000012 Rises=F Damp=F
 DIIS: error= 5.81D-08 at cycle  11 NSaved=  11.
 NSaved=11 IEnMin=11 EnMin= -348.484751943341     IErMin=11 ErrMin= 5.81D-08
 ErrMax= 5.81D-08  0.00D+00 EMaxC= 1.00D-01 BMatC= 8.80D-13 BMatP= 1.02D-11
 IDIUse=1 WtCom= 1.00D+00 WtEn= 0.00D+00
 Coeff-Com:  0.102D-05-0.509D-04 0.301D-04 0.237D-03 0.927D-03 0.188D-02
 Coeff-Com: -0.775D-02-0.363D-01-0.342D-02 0.235D+00 0.810D+00
 Coeff:      0.102D-05-0.509D-04 0.301D-04 0.237D-03 0.927D-03 0.188D-02
 Coeff:     -0.775D-02-0.363D-01-0.342D-02 0.235D+00 0.810D+00
 Gap=     0.291 Goal=   None    Shift=    0.000
 RMSDP=1.13D-08 MaxDP=2.45D-07 DE=-1.19D-11 OVMax= 3.32D-07

 Cycle  12  Pass 1  IDiag  1:
 E= -348.484751943339     Delta-E=        0.000000000002 Rises=F Damp=F
 DIIS: error= 6.50D-09 at cycle  12 NSaved=  12.
 NSaved=12 IEnMin=11 EnMin= -348.484751943341     IErMin=12 ErrMin= 6.50D-09
 ErrMax= 6.50D-09  0.00D+00 EMaxC= 1.00D-01 BMatC= 9.15D-15 BMatP= 8.80D-13
 IDIUse=1 WtCom= 1.00D+00 WtEn= 0.00D+00
 Coeff-Com:  0.215D-05-0.175D-04-0.276D-04-0.110D-04 0.113D-03 0.856D-03
 Coeff-Com:  0.300D-03-0.234D-02-0.115D-01-0.283D-01-0.375D-02 0.104D+01
 Coeff:      0.215D-05-0.175D-04-0.276D-04-0.110D-04 0.113D-03 0.856D-03
 Coeff:      0.300D-03-0.234D-02-0.115D-01-0.283D-01-0.375D-02 0.104D+01
 Gap=     0.291 Goal=   None    Shift=    0.000
 RMSDP=2.54D-09 MaxDP=5.65D-08 DE= 1.71D-12 OVMax= 7.49D-08

 Error on total polarization charges =  0.00916
 SCF Done:  E(RM062X) =  -348.484751943     A.U. after   12 cycles
            NFock= 12  Conv=0.25D-08     -V/T= 2.0085
 KE= 3.455531999694D+02 PE=-1.302233980768D+03 EE= 3.617787424584D+02
 SMD-CDS (non-electrostatic) energy       (kcal/mol) =       1.39
 (included in total energy above)
 Leave Link  502 at Mon May 16 16:34:11 2022, MaxMem=  2147483648 cpu:        50.4
 (Enter /gpfs/runtime/opt/gaussian/g09-D01/g09/l701.exe)
 Compute integral first derivatives.
 ... and contract with generalized density number  0.
 R6Disp: Adding Grimme-D3 dispersion energy 1st derivatives to the gradient.
 D1PCM: PCM CHGder 1st derivatives, ID1Alg=3 FixD1E=F DoIter=F DoCFld=F I1PDM=0.
 GePol: Maximum number of non-zero 1st derivatives   =     311
 Leave Link  701 at Mon May 16 16:34:13 2022, MaxMem=  2147483648 cpu:        11.3
 (Enter /gpfs/runtime/opt/gaussian/g09-D01/g09/l702.exe)
 L702 exits ... SP integral derivatives will be done elsewhere.
 Leave Link  702 at Mon May 16 16:34:13 2022, MaxMem=  2147483648 cpu:         0.1
 (Enter /gpfs/runtime/opt/gaussian/g09-D01/g09/l703.exe)
 Compute integral first derivatives, UseDBF=F ICtDFT=           0.
 Integral derivatives from FoFJK, PRISM(SPDF).
 Calling FoFJK, ICntrl=      2127 FMM=F ISym2X=0 I1Cent= 0 IOpClX= 0 NMat=1 NMatS=1 NMatT=0.
 FoFJK:  IHMeth= 1 ICntrl=    2127 DoSepK=F KAlg= 0 I1Cent=   0 FoldK=F
 IRaf=         0 NMat=   1 IRICut=       1 DoRegI=T DoRafI=F ISym2E= 0.
 FoFCou: FMM=F IPFlag=           0 FMFlag=      100000 FMFlg1=         800
         NFxFlg=           0 DoJE=F BraDBF=F KetDBF=F FulRan=T
         wScrn=  0.000000 ICntrl=    2127 IOpCl=  0 I1Cent=           0 NGrid=           0
         NMat0=    1 NMatS0=      1 NMatT0=    0 NMatD0=    1 NMtDS0=    0 NMtDT0=    0
 Symmetry not used in FoFCou.
 Leave Link  703 at Mon May 16 16:34:16 2022, MaxMem=  2147483648 cpu:        11.0
 (Enter /gpfs/runtime/opt/gaussian/g09-D01/g09/l716.exe)
 Dipole        = 8.25481595D+00 7.53920385D-01 3.10595166D-03
 ***** Axes restored to original set *****
 -------------------------------------------------------------------
 Center     Atomic                   Forces (Hartrees/Bohr)
 Number     Number              X              Y              Z
 -------------------------------------------------------------------
      1        8           0.004185659    0.000144652    0.000362287
      2        6          -0.009318012   -0.001129539   -0.000925961
      3        8          -0.002721208    0.004367384    0.000205695
      4        6           0.009649620   -0.013677090    0.000129525
      5        6           0.009598653    0.012330292   -0.000269167
      6        8          -0.003469062   -0.002969908    0.000459009
      7        1          -0.003545500    0.003572407    0.000055057
      8        1          -0.003581020   -0.003742056    0.000017883
      9        3          -0.000799130    0.001103859   -0.000034328
 -------------------------------------------------------------------
 Cartesian Forces:  Max     0.013677090 RMS     0.005209236
 Leave Link  716 at Mon May 16 16:34:16 2022, MaxMem=  2147483648 cpu:         0.1
 (Enter /gpfs/runtime/opt/gaussian/g09-D01/g09/l103.exe)

 GradGradGradGradGradGradGradGradGradGradGradGradGradGradGradGradGradGrad
 Berny optimization.
 Using GEDIIS/GDIIS optimizer.
 FormGI is forming the generalized inverse of G from B-inverse, IUseBI=4.
 Internal  Forces:  Max     0.007711301 RMS     0.002716678
 Search for a local minimum.
 Step number   2 out of a maximum of   48
 All quantities printed in internal units (Hartrees-Bohrs-Radians)
 RMS Force = .27167D-02 SwitMx=.10000D-02 MixMth= 1
 Mixed Optimization -- RFO/linear search
 Update second derivatives using D2CorX and points    1    2
 DE= -4.80D-03 DEPred=-3.97D-03 R= 1.21D+00
 TightC=F SS=  1.41D+00  RLast= 1.85D-01 DXNew= 5.0454D-01 5.5634D-01
 Trust test= 1.21D+00 RLast= 1.85D-01 DXMaxT set to 5.05D-01
 ITU=  1  0
 Use linear search instead of GDIIS.
     Eigenvalues ---    0.01327   0.02376   0.02419   0.02452   0.02616
     Eigenvalues ---    0.02714   0.02911   0.11376   0.16001   0.22702
     Eigenvalues ---    0.24826   0.24999   0.25697   0.35980   0.35991
     Eigenvalues ---    0.47803   0.49416   0.50500   0.56000   0.63219
     Eigenvalues ---    0.98083
 RFO step:  Lambda=-1.36690597D-03 EMin= 1.32712738D-02
 Quartic linear search produced a step of  0.64868.
 Iteration  1 RMS(Cart)=  0.04461127 RMS(Int)=  0.00147296
 Iteration  2 RMS(Cart)=  0.00137060 RMS(Int)=  0.00006686
 Iteration  3 RMS(Cart)=  0.00000041 RMS(Int)=  0.00006686
 ITry= 1 IFail=0 DXMaxC= 1.75D-01 DCOld= 1.00D+10 DXMaxT= 5.05D-01 DXLimC= 3.00D+00 Rises=F
 Variable       Old X    -DE/DX   Delta X   Delta X   Delta X     New X
                                 (Linear)    (Quad)   (Total)
    R1        2.26841  -0.00417  -0.01877   0.00745  -0.01132   2.25709
    R2        2.55265   0.00218   0.00991  -0.00034   0.00958   2.56223
    R3        2.54776   0.00088   0.00673  -0.00216   0.00457   2.55233
    R4        2.60101   0.00771   0.02562   0.00484   0.03046   2.63147
    R5        6.17625   0.00100   0.02112   0.15862   0.17974   6.35598
    R6        2.52024  -0.00515   0.01257  -0.02373  -0.01117   2.50907
    R7        2.03857  -0.00040  -0.00156  -0.00075  -0.00231   2.03626
    R8        2.59675   0.00635   0.02285   0.00205   0.02489   2.62164
    R9        2.03823  -0.00027  -0.00177   0.00002  -0.00175   2.03648
    A1        2.19076   0.00071  -0.00672   0.00799   0.00124   2.19200
    A2        2.19469   0.00131  -0.00417   0.01028   0.00608   2.20077
    A3        1.89773  -0.00202   0.01088  -0.01818  -0.00731   1.89041
    A4        1.87449   0.00039  -0.00601   0.00814   0.00214   1.87663
    A5        2.66717  -0.00267  -0.00162  -0.01731  -0.01893   2.64824
    A6        1.74153   0.00228   0.00763   0.00917   0.01679   1.75832
    A7        1.88646   0.00017  -0.00110   0.00104  -0.00007   1.88640
    A8        2.11642  -0.00513  -0.05262  -0.02334  -0.07596   2.04046
    A9        2.28030   0.00496   0.05372   0.02230   0.07602   2.35632
   A10        1.89111  -0.00007   0.00192  -0.00407  -0.00216   1.88895
   A11        2.28079   0.00541   0.05404   0.02727   0.08131   2.36210
   A12        2.11128  -0.00534  -0.05596  -0.02319  -0.07914   2.03213
   A13        1.87498   0.00153  -0.00568   0.01309   0.00740   1.88239
    D1       -3.13688  -0.00025   0.00330  -0.01274  -0.00945   3.13686
    D2       -0.00013  -0.00021   0.00328  -0.01033  -0.00708  -0.00720
    D3       -0.00126   0.00013  -0.00357   0.00452   0.00092  -0.00034
    D4        3.13549   0.00017  -0.00358   0.00693   0.00329   3.13878
    D5        3.13829   0.00017  -0.00072   0.01040   0.00965  -3.13525
    D6        0.00268  -0.00020   0.00616  -0.00690  -0.00076   0.00193
    D7       -0.00070   0.00000  -0.00046  -0.00029  -0.00074  -0.00145
    D8        3.14140   0.00000   0.00024   0.00029   0.00039  -3.14140
    D9       -3.14005  -0.00001  -0.00045  -0.00133  -0.00180   3.14134
   D10        0.00205  -0.00001   0.00025  -0.00075  -0.00067   0.00139
   D11        0.00236  -0.00013   0.00427  -0.00396   0.00026   0.00262
   D12        3.14089   0.00003  -0.00009   0.00184   0.00169  -3.14061
   D13       -3.13981  -0.00013   0.00352  -0.00464  -0.00123  -3.14104
   D14       -0.00128   0.00003  -0.00083   0.00116   0.00019  -0.00109
   D15       -0.00313   0.00020  -0.00648   0.00669   0.00028  -0.00285
   D16        3.14117   0.00004  -0.00236   0.00147  -0.00115   3.14002
         Item               Value     Threshold  Converged?
 Maximum Force            0.007711     0.000450     NO 
 RMS     Force            0.002717     0.000300     NO 
 Maximum Displacement     0.175016     0.001800     NO 
 RMS     Displacement     0.044471     0.001200     NO 
 Predicted change in Energy=-6.825481D-04
 Lowest energy point so far.  Saving SCF results.
 GradGradGradGradGradGradGradGradGradGradGradGradGradGradGradGradGradGrad

 Leave Link  103 at Mon May 16 16:34:18 2022, MaxMem=  2147483648 cpu:        12.6
 (Enter /gpfs/runtime/opt/gaussian/g09-D01/g09/l202.exe)
                          Input orientation:                          
 ---------------------------------------------------------------------
 Center     Atomic      Atomic             Coordinates (Angstroms)
 Number     Number       Type             X           Y           Z
 ---------------------------------------------------------------------
      1          8           0       -1.898767    0.000492    0.002914
      2          6           0       -0.704415   -0.009234   -0.001688
      3          8           0        0.093681    1.086864   -0.000255
      4          6           0        1.413955    0.644173   -0.000825
      5          6           0        1.403438   -0.683530   -0.000729
      6          8           0        0.082357   -1.107049   -0.003553
      7          1           0        2.181803    1.400150    0.000353
      8          1           0        2.154849   -1.456014   -0.000270
      9          3           0        0.549699    4.419249    0.000153
 ---------------------------------------------------------------------
                    Distance matrix (angstroms):
                    1          2          3          4          5
     1  O    0.000000
     2  C    1.194401   0.000000
     3  O    2.269375   1.355872   0.000000
     4  C    3.374680   2.216852   1.392516   0.000000
     5  C    3.372308   2.213079   2.202217   1.327745   0.000000
     6  O    2.269701   1.350634   2.193945   2.199987   1.387311
     7  H    4.313943   3.211950   2.111493   1.077541   2.224316
     8  H    4.307345   3.204460   3.273323   2.227041   1.077659
     9  Li   5.051773   4.602636   3.363442   3.872742   5.173705
                    6          7          8          9
     6  O    0.000000
     7  H    3.270129   0.000000
     8  H    2.101668   2.856292   0.000000
     9  Li   5.546025   3.432014   6.090584   0.000000
 Stoichiometry    C3H2LiO3(1+)
 Framework group  C1[X(C3H2LiO3)]
 Deg. of freedom    21
 Full point group                 C1      NOp   1
 RotChk:  IX=3 Diff= 7.47D-02
 Largest Abelian subgroup         C1      NOp   1
 Largest concise Abelian subgroup C1      NOp   1
                         Standard orientation:                         
 ---------------------------------------------------------------------
 Center     Atomic      Atomic             Coordinates (Angstroms)
 Number     Number       Type             X           Y           Z
 ---------------------------------------------------------------------
      1          8           0       -0.813896   -1.849725   -0.002002
      2          6           0       -0.493078   -0.699223    0.001635
      3          8           0        0.780932   -0.235234    0.000134
      4          6           0        0.720468    1.155968   -0.000587
      5          6           0       -0.558404    1.512890   -0.001367
      6          8           0       -1.330619    0.360370    0.002296
      7          1           0        1.659250    1.684911   -0.001986
      8          1           0       -1.093065    2.448563   -0.002833
      9          3           0        4.109520   -0.718188    0.001100
 ---------------------------------------------------------------------
 Rotational constants (GHZ):      4.2398884      2.7463798      1.6667498
 Leave Link  202 at Mon May 16 16:34:19 2022, MaxMem=  2147483648 cpu:         0.5
 (Enter /gpfs/runtime/opt/gaussian/g09-D01/g09/l301.exe)
 Standard basis: 6-31+G(d,p) (6D, 7F)
 Ernie: Thresh=  0.10000D-02 Tol=  0.10000D-05 Strict=F.
 There are   143 symmetry adapted cartesian basis functions of A   symmetry.
 There are   143 symmetry adapted basis functions of A   symmetry.
   143 basis functions,   238 primitive gaussians,   143 cartesian basis functions
    23 alpha electrons       23 beta electrons
       nuclear repulsion energy       245.4814715126 Hartrees.
 IExCor= 4336 DFT=T Ex+Corr=M062X ExCW=0 ScaHFX=  0.540000
 ScaDFX=  1.000000  1.000000  1.000000  1.000000 ScalE2=  1.000000  1.000000
 IRadAn=      0 IRanWt=     -1 IRanGd=            0 ICorTp=0 IEmpDi=131
 NAtoms=    9 NActive=    9 NUniq=    9 SFac= 1.00D+00 NAtFMM=   60 NAOKFM=F Big=F
 Integral buffers will be    131072 words long.
 Raffenetti 2 integral format.
 Two-electron integral symmetry is turned on.
 R6Disp:  Grimme-D3 Dispersion energy=       -0.0001937396 Hartrees.
 Nuclear repulsion after empirical dispersion term =      245.4812777730 Hartrees.
 ------------------------------------------------------------------------------
 Polarizable Continuum Model (PCM)
 =================================
 Model                : PCM (using non-symmetric T matrix).
 Atomic radii         : SMD-Coulomb.
 Polarization charges : Total charges.
 Charge compensation  : None.
 Solution method      : On-the-fly selection.
 Cavity type          : VdW (van der Waals Surface) (Alpha=1.000).
 Cavity algorithm     : GePol (No added spheres)
                        Default sphere list used, NSphG=    9.
                        Lebedev-Laikov grids with approx.  5.0 points / Ang**2.
                        Smoothing algorithm: Karplus/York (Gamma=1.0000).
                        Polarization charges: spherical gaussians, with
                                              point-specific exponents (IZeta= 3).
                        Self-potential: point-specific (ISelfS= 7).
                        Self-field    : sphere-specific E.n sum rule (ISelfD= 2).
 1st derivatives      : Analytical E(r).r(x)/FMM algorithm (CHGder, D1EAlg=3).
                        Cavity 1st derivative terms included.
 Solvent              : DiMethylSulfoxide, Eps=  46.826000 Eps(inf)=   2.007889
 ------------------------------------------------------------------------------
 Spheres list:
 ISph  on   Nord     Re0    Alpha      Xe            Ye            Ze
    1   O      1    2.2940  1.000     -0.813896     -1.849725     -0.002002
    2   C      2    1.8500  1.000     -0.493078     -0.699223      0.001635
    3   O      3    2.2940  1.000      0.780932     -0.235234      0.000134
    4   C      4    1.8500  1.000      0.720468      1.155968     -0.000587
    5   C      5    1.8500  1.000     -0.558404      1.512890     -0.001367
    6   O      6    2.2940  1.000     -1.330619      0.360370      0.002296
    7   H      7    1.2000  1.000      1.659250      1.684911     -0.001986
    8   H      8    1.2000  1.000     -1.093065      2.448563     -0.002833
    9  Li      9    1.8200  1.000      4.109520     -0.718188      0.001100
 ------------------------------------------------------------------------------
 GePol: Number of generator spheres                  =       9
 GePol: Total number of spheres                      =       9
 GePol: Number of exposed spheres                    =       9 (100.00%)
 GePol: Number of points                             =    1239
 GePol: Average weight of points                     =       0.13
 GePol: Minimum weight of points                     =   0.18D-08
 GePol: Maximum weight of points                     =    0.17992
 GePol: Number of points with low weight             =      27
 GePol: Fraction of low-weight points (<1% of avg)   =       2.18%
 GePol: Cavity surface area                          =    162.280 Ang**2
 GePol: Cavity volume                                =    147.025 Ang**3
 ------------------------------------------------------------------------------
 Atomic radii for non-electrostatic terms: SMD-CDS.
 ------------------------------------------------------------------------------
 PCM non-electrostatic energy =         0.0023381581 Hartrees.
 Nuclear repulsion after PCM non-electrostatic terms =      245.4836159311 Hartrees.
 Leave Link  301 at Mon May 16 16:34:19 2022, MaxMem=  2147483648 cpu:         0.5
 (Enter /gpfs/runtime/opt/gaussian/g09-D01/g09/l302.exe)
 NPDir=0 NMtPBC=     1 NCelOv=     1 NCel=       1 NClECP=     1 NCelD=      1
         NCelK=      1 NCelE2=     1 NClLst=     1 CellRange=     0.0.
 One-electron integrals computed using PRISM.
 NBasis=   143 RedAO= T EigKep=  4.82D-05  NBF=   143
 NBsUse=   143 1.00D-06 EigRej= -1.00D+00 NBFU=   143
 Precomputing XC quadrature grid using
 IXCGrd= 4 IRadAn=           0 IRanWt=          -1 IRanGd=           0 AccXCQ= 0.00D+00.
[...]
     18  0.319101D-01  0.213084D-02  0.801457D-02 -0.976632D-03 -0.349368D-02
     19 -0.574940D-01  0.235268D-02 -0.132265D-01 -0.445642D-02 -0.240255D-02
     20  0.335362D-01 -0.907787D-03 -0.138052D-01  0.206376D-02  0.209796D-02
     21  0.239579D-01 -0.144466D-02  0.270317D-01  0.239223D-02  0.304558D-03
     22  0.826713D-02  0.517589D-04 -0.385231D-01  0.232610D-02  0.417834D-01
     23 -0.434885D-04  0.717857D-04 -0.653306D-03 -0.806362D-04 -0.372588D-03
     24  0.300689D-03  0.964444D-04  0.867680D-03  0.106675D-03  0.106129D-03
     25  0.139700D-03  0.644273D-04 -0.406534D-03  0.380212D-04 -0.184059D-03
     26  0.483878D-03  0.890860D-04  0.111445D-02  0.225332D-03  0.294658D-03
     27  0.204641D-03 -0.320601D-04  0.475862D-03  0.117398D-03  0.343217D-03
     28  0.212551D-04 -0.247287D-04  0.227287D-03 -0.137149D-05  0.138139D-03
     29 -0.276380D-03 -0.814685D-04  0.365260D-03 -0.610945D-04  0.173339D-03
     30 -0.344536D-04 -0.286970D-03  0.158649D-03  0.567834D-04  0.766575D-04
     31 -0.308022D-03 -0.122101D-03  0.760693D-04 -0.128706D-03  0.941009D-04
     32 -0.660953D-04 -0.327602D-03 -0.130542D-03 -0.108280D-04 -0.258025D-05
     33  0.248107D-03  0.666344D-04 -0.210787D-03  0.591118D-04 -0.796981D-04
     34  0.155619D-03 -0.748299D-04 -0.235037D-03  0.321977D-03 -0.622754D-04
     35 -0.333140D-04  0.319955D-03  0.464217D-04 -0.857477D-04  0.328053D-04
     36 -0.125802D-03  0.178491D-03  0.221718D-04  0.177118D-03  0.502281D-04
     37 -0.125504D-03 -0.269251D-04 -0.185752D-04 -0.365688D-04 -0.625766D-04
     38 -0.162347D-04  0.880468D-04 -0.464705D-04 -0.249313D-03 -0.735457D-04
               11            12            13            14            15 
     11  0.157084D+00
     12 -0.600555D-01  0.121926D+00
     13  0.292560D-01 -0.558413D-01  0.925164D-01
     14 -0.146197D-01  0.272809D-01 -0.458350D-01  0.249324D-01
     15 -0.145858D-01  0.284651D-01 -0.464981D-01  0.208350D-01  0.255760D-01
     16  0.611273D-02 -0.201659D-02 -0.530757D-01  0.266611D-01  0.263013D-01
     17 -0.364192D-02 -0.394784D-02  0.293945D-01 -0.148499D-01 -0.144827D-01
     18 -0.247092D-02  0.596461D-02  0.236809D-01 -0.118112D-01 -0.118186D-01
     19 -0.115817D-01  0.139842D-01  0.585103D-02 -0.247470D-02 -0.337179D-02
     20  0.339094D-03 -0.243705D-02 -0.887233D-02  0.338030D-02  0.548558D-02
     21  0.112425D-01 -0.115471D-01  0.302115D-02 -0.905954D-03 -0.211368D-02
     22  0.362683D-01 -0.780518D-01  0.105492D-01 -0.563244D-02 -0.489614D-02
     23 -0.150522D-03  0.521468D-03 -0.867095D-03  0.511740D-03  0.378668D-04
     24  0.437463D-03 -0.545324D-03  0.131375D-02 -0.375564D-03 -0.843375D-03
     25 -0.164570D-03  0.349853D-03 -0.595287D-03 -0.374857D-03  0.576441D-03
     26  0.423416D-03 -0.716940D-03  0.158556D-02 -0.126216D-02 -0.304801D-03
     27  0.639164D-04 -0.405595D-03  0.646053D-03 -0.732451D-03  0.151001D-03
     28  0.942041D-04 -0.233675D-03  0.374101D-03  0.155065D-03 -0.388258D-03
     29  0.207706D-03 -0.381685D-03  0.569226D-03  0.474512D-03 -0.537090D-03
     30  0.742088D-04 -0.151116D-03  0.339673D-03  0.441909D-03 -0.490732D-03
     31  0.143898D-03 -0.238558D-03  0.600187D-04  0.328632D-03 -0.221532D-03
     32  0.104009D-04 -0.798939D-05 -0.169535D-03  0.296028D-03 -0.175174D-03
     33 -0.130231D-03  0.209750D-03 -0.309287D-03 -0.391931D-03  0.282606D-03
     34 -0.129675D-03  0.192462D-03 -0.223013D-03 -0.175675D-03  0.222961D-03
     35  0.332969D-04 -0.667600D-04 -0.213197D-04 -0.354867D-03  0.222551D-03
     36  0.338529D-04 -0.840481D-04  0.649537D-04 -0.138611D-03  0.162906D-03
     37  0.128911D-04  0.506180D-04 -0.554613D-04  0.162444D-03  0.708751D-04
     38  0.274851D-05  0.711674D-04 -0.143221D-03 -0.715604D-05  0.130492D-03
               16            17            18            19            20 
     16  0.951912D-01
     17 -0.532090D-01  0.844175D-01
     18 -0.419821D-01 -0.312087D-01  0.731908D-01
     19 -0.513008D-01  0.263439D-01  0.249569D-01  0.108917D+00
     20  0.240787D-01 -0.121368D-01 -0.119417D-01 -0.486542D-01  0.769909D-01
     21  0.272222D-01 -0.142070D-01 -0.130154D-01 -0.602624D-01 -0.283370D-01
     22  0.112020D-01  0.141837D-02 -0.126204D-01 -0.774510D-01  0.358848D-01
     23  0.524616D-03 -0.216510D-03 -0.307739D-03 -0.353804D-05 -0.101363D-04
     24 -0.869902D-03  0.549781D-03  0.317975D-03  0.370582D-05  0.946775D-05
     25  0.297837D-03 -0.112328D-03 -0.181439D-03  0.687194D-05  0.317767D-04
     26 -0.109668D-02  0.653964D-03  0.444276D-03  0.141158D-04  0.513808D-04
     27 -0.397551D-03  0.183173D-03  0.217250D-03 -0.589686D-04  0.767511D-04
     28 -0.169852D-03  0.781518D-04  0.908646D-04 -0.699783D-04  0.346766D-04
     29 -0.267450D-03  0.846730D-04  0.176889D-03  0.285345D-05 -0.572288D-04
     30 -0.180573D-03 -0.145421D-03  0.326764D-03 -0.481355D-04  0.994648D-04
     31  0.103446D-03 -0.106708D-03  0.000000D+00  0.327122D-04 -0.876938D-04
     32  0.190323D-03 -0.336802D-03  0.149328D-03 -0.182768D-04  0.689997D-04
     33  0.157532D-03 -0.336175D-04 -0.118558D-03 -0.264728D-04  0.680616D-04
     34  0.636051D-04 -0.726289D-04  0.142432D-04 -0.338145D-04  0.342260D-03
     35  0.405065D-04  0.186095D-03 -0.229419D-03  0.446390D-04 -0.128608D-03
     36 -0.534209D-04  0.147084D-03 -0.966178D-04  0.372973D-04  0.145590D-03
     37  0.179888D-04 -0.341275D-04  0.132676D-04  0.446382D-04 -0.545037D-04
     38  0.109708D-03 -0.961423D-05 -0.102853D-03  0.245871D-04 -0.123716D-03
               21            22            23            24            25 
     21  0.885997D-01
     22  0.415660D-01  0.133751D+00
     23  0.239227D-04 -0.180104D-03  0.163851D-01
     24 -0.872430D-05  0.904172D-04  0.117391D-01  0.131013D-01
     25 -0.418739D-04 -0.508015D-04 -0.315246D-02 -0.886619D-02  0.114122D-01
     26 -0.745210D-04  0.219720D-03 -0.779851D-02 -0.750396D-02  0.569852D-02
     27 -0.189482D-04  0.219651D-03 -0.130375D-01 -0.120689D-01  0.525598D-02
     28  0.476255D-04  0.898521D-04  0.652312D-02  0.856067D-02 -0.932594D-02
     29  0.468335D-04  0.729764D-04 -0.159010D-02  0.577070D-02 -0.920067D-02
     30 -0.585887D-04  0.380307D-04 -0.113170D-02  0.308237D-02 -0.410265D-02
     31  0.522600D-04  0.405617D-04  0.221580D-02  0.463737D-02 -0.443077D-02
     32 -0.531623D-04  0.561593D-05  0.267420D-02  0.194903D-02  0.667257D-03
     33 -0.265166D-04 -0.333128D-04  0.558339D-02 -0.504452D-03  0.345457D-02
     34 -0.320489D-03  0.389259D-05 -0.666394D-03 -0.321774D-02  0.542154D-02
     35  0.986945D-04 -0.125913D-05  0.502040D-02  0.279635D-02 -0.280498D-02
     36 -0.195278D-03  0.359463D-04 -0.122938D-02  0.830546D-04 -0.838013D-03
     37 -0.724029D-05 -0.507770D-04 -0.754080D-02 -0.494693D-02  0.355309D-02
     38  0.104097D-03 -0.592416D-04 -0.245293D-02 -0.273803D-02  0.195188D-02
               26            27            28            29            30 
     26  0.599308D-02
     27  0.622458D-02  0.145554D-01
     28 -0.728839D-02 -0.375975D-02  0.121080D-01
     29 -0.183987D-02 -0.479806D-02  0.282151D-02  0.123349D-01
     30  0.111421D-03 -0.120009D-02  0.177437D-02  0.495979D-02  0.592419D-02
     31 -0.200921D-02 -0.554256D-02  0.111187D-02  0.619871D-02  0.142795D-02
     32 -0.579135D-04 -0.194458D-02  0.647335D-04 -0.117644D-02  0.239236D-02
     33 -0.263327D-02  0.247830D-02  0.460963D-02 -0.105660D-01 -0.385626D-02
     34  0.287019D-02  0.318927D-02 -0.290586D-02 -0.596688D-02  0.570912D-03
     35 -0.502903D-02 -0.193926D-02  0.589536D-02 -0.151055D-02 -0.504005D-02
     36  0.474421D-03 -0.122830D-02 -0.162012D-02  0.308856D-02 -0.612873D-03
     37  0.614696D-02  0.746160D-03 -0.103608D-01  0.494211D-02  0.134574D-02
     38  0.166678D-02  0.167509D-03 -0.424250D-02  0.119785D-02 -0.225818D-02
               31            32            33            34            35 
     31  0.416647D-02
     32 -0.604285D-03  0.296451D-02
     33 -0.549736D-02  0.121237D-02  0.133579D-01
     34 -0.383777D-02  0.270002D-02  0.416657D-02  0.115114D-01
     35  0.360302D-03 -0.316919D-02  0.511954D-02 -0.386060D-02  0.945285D-02
     36  0.201990D-02 -0.168154D-02 -0.407184D-02  0.348427D-02  0.472708D-03
     37  0.279035D-02 -0.806023D-03 -0.112775D-01 -0.845834D-03 -0.686175D-02
     38  0.143908D-02 -0.201695D-02 -0.379467D-02 -0.682440D-02  0.448637D-03
               36            37            38 
     36  0.802882D-02
     37  0.356988D-02  0.135002D-01
     38 -0.258109D-02  0.500775D-02  0.747394D-02
 Leave Link  716 at Mon May 16 16:55:50 2022, MaxMem=  2147483648 cpu:         2.3
 (Enter /gpfs/runtime/opt/gaussian/g09-D01/g09/l103.exe)

 GradGradGradGradGradGradGradGradGradGradGradGradGradGradGradGradGradGrad
 Berny optimization.
 Red2BG is reusing G-inverse.
 Internal  Forces:  Max     0.000037692 RMS     0.000012038
 Search for a local minimum.
 Step number   1 out of a maximum of    2
 All quantities printed in internal units (Hartrees-Bohrs-Radians)
 Second derivative matrix not updated -- analytic derivatives used.
 ITU=  0
     Eigenvalues ---    0.00005   0.00009   0.00434   0.01235   0.01921
     Eigenvalues ---    0.02142   0.04567   0.06348   0.10023   0.10585
     Eigenvalues ---    0.18756   0.24545   0.25867   0.32136   0.35744
     Eigenvalues ---    0.38895   0.39174   0.42317   0.43954   0.62138
     Eigenvalues ---    0.93756
 Angle between quadratic step and forces=  78.13 degrees.
 Linear search not attempted -- first point.
 Iteration  1 RMS(Cart)=  0.04573392 RMS(Int)=  0.00108940
 Iteration  2 RMS(Cart)=  0.00147465 RMS(Int)=  0.00050365
 Iteration  3 RMS(Cart)=  0.00000070 RMS(Int)=  0.00050365
 ITry= 1 IFail=0 DXMaxC= 1.25D-01 DCOld= 1.00D+10 DXMaxT= 3.00D-01 DXLimC= 3.00D+00 Rises=F
 Variable       Old X    -DE/DX   Delta X   Delta X   Delta X     New X
                                 (Linear)    (Quad)   (Total)
    R1        2.26531   0.00000   0.00000   0.00005   0.00005   2.26535
    R2        2.55261   0.00001   0.00000  -0.00025  -0.00002   2.55259
    R3        2.55199   0.00000   0.00000  -0.00024  -0.00032   2.55167
    R4        2.61793   0.00001   0.00000   0.00009   0.00031   2.61823
    R5        9.10131   0.00000   0.00000  -0.03505  -0.03505   9.06626
    R6        2.50925   0.00001   0.00000   0.00009   0.00000   2.50925
    R7        2.03699   0.00000   0.00000   0.00016   0.00016   2.03715
    R8        2.61808  -0.00003   0.00000  -0.00012  -0.00040   2.61768
    R9        2.03721   0.00000   0.00000   0.00004   0.00004   2.03726
    A1        2.19401  -0.00001   0.00000  -0.00016  -0.00036   2.19365
    A2        2.19565  -0.00001   0.00000  -0.00011  -0.00031   2.19533
    A3        1.89353   0.00002   0.00000   0.00028   0.00068   1.89421
    A4        1.87760  -0.00004   0.00000  -0.00017  -0.00082   1.87677
    A5        2.33004   0.00002   0.00000  -0.01789  -0.01931   2.31073
    A6        2.07258   0.00001   0.00000   0.01129   0.00946   2.08204
    A7        1.88794   0.00002   0.00000  -0.00002   0.00037   1.88830
    A8        2.05736  -0.00002   0.00000   0.00028   0.00009   2.05745
    A9        2.33789   0.00000   0.00000  -0.00026  -0.00045   2.33744
   A10        1.88811   0.00000   0.00000  -0.00001  -0.00006   1.88805
   A11        2.33812   0.00000   0.00000  -0.00005  -0.00002   2.33810
   A12        2.05695   0.00000   0.00000   0.00005   0.00008   2.05703
   A13        1.87760   0.00000   0.00000  -0.00008  -0.00016   1.87744
    D1        3.14098   0.00000   0.00000  -0.00113  -0.00142   3.13956
    D2       -0.08737  -0.00001   0.00000  -0.09906  -0.09838  -0.18575
    D3       -0.00070  -0.00001   0.00000  -0.00123  -0.00123  -0.00193
    D4        3.05413  -0.00001   0.00000  -0.09916  -0.09820   2.95594
    D5       -3.14093   0.00000   0.00000   0.00148   0.00185  -3.13908
    D6        0.00075   0.00000   0.00000   0.00158   0.00167   0.00242
    D7        0.00037   0.00000   0.00000   0.00039   0.00031   0.00068
    D8        3.14128   0.00000   0.00000   0.00048   0.00025   3.14153
    D9       -3.06947   0.00001   0.00000   0.08298   0.08388  -2.98559
   D10        0.07144   0.00000   0.00000   0.08307   0.08382   0.15526
   D11        0.00009   0.00000   0.00000   0.00058   0.00071   0.00080
   D12       -3.13938   0.00000   0.00000   0.00278   0.00270  -3.13668
   D13       -3.14066   0.00000   0.00000   0.00047   0.00078  -3.13988
   D14        0.00305   0.00001   0.00000   0.00266   0.00277   0.00582
   D15       -0.00052   0.00000   0.00000  -0.00134  -0.00147  -0.00199
   D16        3.13935  -0.00001   0.00000  -0.00313  -0.00309   3.13625
         Item               Value     Threshold  Converged?
 Maximum Force            0.000038     0.000450     YES
 RMS     Force            0.000012     0.000300     YES
 Maximum Displacement     0.125216     0.001800     NO 
 RMS     Displacement     0.045846     0.001200     NO 
 Predicted change in Energy=-1.430459D-06
 GradGradGradGradGradGradGradGradGradGradGradGradGradGradGradGradGradGrad

 Leave Link  103 at Mon May 16 16:55:55 2022, MaxMem=  2147483648 cpu:        20.5
 (Enter /gpfs/runtime/opt/gaussian/g09-D01/g09/l9999.exe)
 1\1\GINC-NODE1714\Freq\RM062X\6-31+G(d,p)\C3H2Li1O3(1+)\ROOT\16-May-20
 22\0\\#P Geom=AllCheck Guess=TCheck SCRF=Check GenChk RM062X/6-31+G(d,
 p) Freq\\872-36-6\\1,1\O,-1.81239371,0.114411891,0.0190744414\C,-0.622
 3621153,-0.0297242645,0.0121830345\O,0.2923150156,0.9633801461,0.05371
 33549\C,1.547430314,0.3775031453,0.0288451819\C,1.3885583754,-0.939616
 3037,-0.02691977\O,0.0300313874,-1.211055334,-0.0384687222\H,2.4074033
 282,1.0268580227,0.0556481657\H,2.0693870216,-1.7747956551,-0.06060013
 44\Li,-0.0237696169,5.7681383521,-0.0473755517\\Version=EM64L-G09RevD.
 01\State=1-A\HF=-348.4871911\RMSD=3.196e-09\RMSF=2.541e-05\ZeroPoint=0
 .0519695\Thermal=0.058877\Dipole=2.2016078,10.105777,-0.1110518\Dipole
 Deriv=-2.0874188,0.1852407,0.0076793,0.1870808,-0.5695988,-0.0028422,0
 .0088023,-0.0027802,-0.5072889,3.2766707,-0.2398969,-0.0112958,-0.2446
 802,1.295133,0.0295015,-0.0124939,0.030243,0.5874552,-1.4046811,0.3138
 553,0.0138691,-0.5658036,-0.7694857,-0.0242769,-0.0224868,-0.0248753,-
 0.1858764,0.5506578,-0.378252,-0.0161573,-0.3271538,0.3400733,0.018874
 6,-0.0136033,0.0198176,-0.1180284,0.6923274,0.2948676,0.0130522,0.2402
 903,0.1992497,0.0141535,0.0101725,0.0139628,-0.1166462,-1.3081765,-0.1
 813432,-0.0071285,0.7031352,-0.8616692,-0.0286699,0.0303293,-0.0290081
 ,-0.1833127,0.1464539,0.0520788,0.001899,0.0169779,0.1748797,-0.003549
 ,0.0000536,-0.0034238,0.2630684,0.1353825,-0.0461529,-0.0019186,-0.009
 8792,0.1892348,-0.0031739,-0.0007735,-0.0039054,0.2613704,0.998784,-0.
 0003967,0.0000009,0.0000324,1.0021831,-0.0000179,-0.0000004,-0.0000304
 ,0.9992585\Polar=63.5780417,-1.382258,52.5325785,-0.0650983,0.8943629,
 31.1264262\PG=C01 [X(C3H2Li1O3)]\NImag=0\\0.89533570,-0.09531637,0.110
 79432,-0.00472527,0.00306653,0.03447120,-0.75636407,0.07955888,0.00395
 878,1.17277230,0.07867479,-0.10624139,-0.00111015,-0.07943754,0.517701
 65,0.00393309,-0.00112861,-0.07641914,-0.00247404,0.01336190,0.2170084
 5,-0.08122797,-0.05314346,-0.00225333,-0.14781985,-0.05941484,-0.00403
 324,0.49405444,-0.03971216,0.01786158,0.00000993,-0.03130506,-0.205320
 27,-0.00599123,-0.00326619,0.45763563,-0.00173181,-0.00001472,0.017890
 30,-0.00289580,-0.00578960,-0.07590919,0.00149374,0.01680933,0.0685781
 8,0.00008636,0.00734744,0.00030729,-0.07796782,-0.06253094,-0.00283061
 ,-0.21084869,0.05240977,0.00207372,0.68432159,-0.00438895,-0.00810252,
 -0.00044109,-0.00875965,0.02457297,0.00073317,0.09108627,-0.14015945,-
 0.00357050,0.20647141,0.91569595,-0.00017969,-0.00042798,0.00224699,-0
 .00056204,0.00077167,0.00497611,0.00375510,-0.00353536,-0.04901279,0.0
 0756886,0.03276548,0.11481681,-0.00125275,-0.00904832,-0.00038118,-0.0
 5476721,0.08212859,0.00326283,-0.05626084,0.01874052,0.00086979,-0.079
 62357,-0.07908268,-0.00306106,0.60349321,0.00270107,-0.00705618,-0.000
 40698,0.02856698,0.00286804,-0.00004392,0.05233863,-0.06131356,-0.0033
 1848,-0.03928190,-0.56079614,-0.02035465,-0.12994254,0.99986780,0.0000
 9498,-0.00039313,0.00219609,0.00118246,-0.00016696,0.00647950,0.002252
 39,-0.00327311,0.01710435,-0.00152587,-0.02036995,-0.06253171,-0.00509
 704,0.03549411,0.11091101,-0.05374060,0.06985714,0.00305020,-0.1307030
 0,0.04093888,0.00216625,0.01856753,0.02260987,0.00107231,-0.07260093,-
 0.04992814,-0.00212540,-0.24055867,-0.06663768,-0.00308766,0.49441519,
 0.05730258,-0.01056528,-0.00118769,0.01181117,-0.22509676,-0.00657083,
 -0.04700001,-0.08085560,-0.00426205,-0.01565402,-0.04441909,-0.0026276
 3,-0.02790363,-0.11294542,-0.00261495,-0.00447979,0.46426537,0.0025911
 4,-0.00115938,0.01785167,0.00082575,-0.00672744,-0.07627218,-0.0019159
 8,-0.00409894,0.01291036,-0.00064756,-0.00251232,0.01715413,-0.0013898
 3,-0.00270975,-0.04563684,-0.00050937,0.01718497,0.06615030,-0.0014950
 4,-0.00163658,-0.00006456,-0.00127446,0.00783706,0.00032813,-0.0214712
 5,-0.01638664,-0.00071785,-0.25307679,-0.15252942,-0.00530568,0.006035
 46,0.00063250,0.00005117,0.00521190,0.00102566,0.00005344,0.26629413,0
 .00187642,0.00168810,0.00003516,0.00263193,-0.00547886,-0.00023458,0.0
 1940951,0.01504654,0.00065995,-0.16507151,-0.18359563,-0.00639120,-0.0
 1855272,0.00066681,-0.00001622,-0.00195132,-0.00315165,-0.00057063,0.1
 6133727,0.17499826,0.00006328,0.00002909,0.00089169,0.00010774,-0.0002
 1459,0.00005083,0.00069093,0.00063535,-0.00151503,-0.00569263,-0.00635
 125,-0.02929308,-0.00077024,-0.00005839,0.00164358,-0.00008205,-0.0005
 5933,0.00994096,0.00566941,0.00641370,0.02101662,-0.00130052,0.0023657
 2,0.00010791,-0.00394978,-0.00818012,-0.00035177,0.00503632,-0.0030745
 2,-0.00016376,0.00969450,-0.00287524,-0.00008979,-0.17707382,0.1516146
 3,0.00612864,-0.02055994,0.02488861,0.00099208,-0.00022255,0.00030597,
 0.00001412,0.18837635,-0.00114952,0.00159473,0.00003440,-0.00303895,-0
 .00293068,-0.00012557,-0.00000888,-0.00290220,-0.00051262,0.01626909,-
 0.00316522,-0.00019993,0.16366803,-0.26129466,-0.00865929,-0.01040746,
 0.01273146,0.00059153,-0.00028584,-0.00015655,0.00010453,-0.16504739,0
 .25612327,-0.00004558,0.00002891,0.00088436,-0.00014324,-0.00012631,0.
 00006857,0.00001015,-0.00055592,0.00996728,0.00074824,-0.00025460,0.00
 164368,0.00656661,-0.00860156,-0.03016310,-0.00048466,0.00063901,-0.00
 209869,-0.00001413,0.00010331,-0.00274419,-0.00663735,0.00876700,0.022
 43995,-0.00004113,0.00001554,0.00000017,0.00007392,-0.00001584,-0.0000
 0064,-0.00002967,-0.00001561,-0.00000035,0.00001536,0.00000639,-0.0000
 0031,0.00000819,0.00000832,0.00000093,-0.00003148,0.00000942,0.0000003
 2,-0.00000139,0.00001445,-0.00000056,-0.00000055,0.00000093,-0.0000000
 3,0.00000674,0.00001215,0.00002664,-0.00000011,-0.00002774,-0.00007470
 ,-0.00000032,-0.00000102,0.00000733,-0.00000132,0.00004067,-0.00003087
 ,-0.00000039,-0.00000726,0.00000330,-0.00000049,-0.00000150,0.00003698
 ,0.00000196,0.00000599,-0.00001703,0.00000089,0.00000233,-0.00000014,0
 .00000017,-0.00002361,0.00004848,-0.00000015,-0.00000071,-0.00001314,0
 .00000038,0.00000149,0.00001704,0.00000023,-0.00000003,-0.00001347,-0.
 00000145,0.00000106,-0.00000014,0.00000012,-0.00000039,-0.00000288,0.0
 0000038,-0.00000149,0.00000029,0.00000008,0.00000052,0.00000863,-0.000
 00007,-0.00000006,0.00000214,0.00000048,-0.00000039,0.00000153\\-0.000
 00765,0.00002807,0.00001785,-0.00003049,0.00003733,-0.00000095,0.00001
 850,-0.00006603,-0.00000635,0.00001358,0.00001852,-0.00002499,0.000001
 51,0.00001277,0.00001911,-0.00003820,0.00000651,0.00002180,0.00001060,
 -0.00002513,-0.00000869,-0.00002590,-0.00001874,-0.00001695,0.00005804
 ,0.00000671,-0.00000082\\\@


      SCIENCE SANS CONSCIENCE N'EST QUE RUINE DE L'AME.

                                                  -- RABELAIS
 Job cpu time:       0 days  0 hours  5 minutes 50.5 seconds.
 File lengths (MBytes):  RWF=    620 Int=      0 D2E=      0 Chk=     12 Scr=      8
 Normal termination of Gaussian 09 at Mon May 16 16:55:56 2022.
