 Entering Gaussian System, Link 0=g09
 Initial command:
 /gpfs/runtime/opt/gaussian/g09-D01/g09/l1.exe "/gpfs/data/yqi27/cgu13/CHEM1560Q/Gaussian/4427-96-7/inp5/Gau-125531.inp" -scrdir="/gpfs/data/yqi27/cgu13/CHEM1560Q/Gaussian/4427-96-7/inp5/"
 Entering Link 1 = /gpfs/runtime/opt/gaussian/g09-D01/g09/l1.exe PID=    125532.
  
 Copyright (c) 1988,1990,1992,1993,1995,1998,2003,2009,2013,
            Gaussian, Inc.  All Rights Reserved.
  
 This is part of the Gaussian(R) 09 program.  It is based on
 the Gaussian(R) 03 system (copyright 2003, Gaussian, Inc.),
 the Gaussian(R) 98 system (copyright 1998, Gaussian, Inc.),
 the Gaussian(R) 94 system (copyright 1995, Gaussian, Inc.),
 the Gaussian 92(TM) system (copyright 1992, Gaussian, Inc.),
 the Gaussian 90(TM) system (copyright 1990, Gaussian, Inc.),
 the Gaussian 88(TM) system (copyright 1988, Gaussian, Inc.),
 the Gaussian 86(TM) system (copyright 1986, Carnegie Mellon
 University), and the Gaussian 82(TM) system (copyright 1983,
 Carnegie Mellon University). Gaussian is a federally registered
 trademark of Gaussian, Inc.
  
 This software contains proprietary and confidential information,
 including trade secrets, belonging to Gaussian, Inc.
  
 This software is provided under written license and may be
 used, copied, transmitted, or stored only in accord with that
 written license.
  
 The following legend is applicable only to US Government
 contracts under FAR:
  
                    RESTRICTED RIGHTS LEGEND
  
 Use, reproduction and disclosure by the US Government is
 subject to restrictions as set forth in subparagraphs (a)
 and (c) of the Commercial Computer Software - Restricted
 Rights clause in FAR 52.227-19.
  
 Gaussian, Inc.
 340 Quinnipiac St., Bldg. 40, Wallingford CT 06492
  
  
 ---------------------------------------------------------------
 Warning -- This program may not be used in any manner that
 competes with the business of Gaussian, Inc. or will provide
 assistance to any competitor of Gaussian, Inc.  The licensee
 of this program is prohibited from giving any competitor of
 Gaussian, Inc. access to this program.  By using this program,
 the user acknowledges that Gaussian, Inc. is engaged in the
 business of creating and licensing software in the field of
 computational chemistry and represents and warrants to the
 licensee that it is not a competitor of Gaussian, Inc. and that
 it will not use this program in any manner prohibited above.
 ---------------------------------------------------------------
  

 Cite this work as:
 Gaussian 09, Revision D.01,
 M. J. Frisch, G. W. Trucks, H. B. Schlegel, G. E. Scuseria, 
 M. A. Robb, J. R. Cheeseman, G. Scalmani, V. Barone, B. Mennucci, 
 G. A. Petersson, H. Nakatsuji, M. Caricato, X. Li, H. P. Hratchian, 
 A. F. Izmaylov, J. Bloino, G. Zheng, J. L. Sonnenberg, M. Hada, 
 M. Ehara, K. Toyota, R. Fukuda, J. Hasegawa, M. Ishida, T. Nakajima, 
 Y. Honda, O. Kitao, H. Nakai, T. Vreven, J. A. Montgomery, Jr., 
 J. E. Peralta, F. Ogliaro, M. Bearpark, J. J. Heyd, E. Brothers, 
 K. N. Kudin, V. N. Staroverov, T. Keith, R. Kobayashi, J. Normand, 
 K. Raghavachari, A. Rendell, J. C. Burant, S. S. Iyengar, J. Tomasi, 
 M. Cossi, N. Rega, J. M. Millam, M. Klene, J. E. Knox, J. B. Cross, 
 V. Bakken, C. Adamo, J. Jaramillo, R. Gomperts, R. E. Stratmann, 
 O. Yazyev, A. J. Austin, R. Cammi, C. Pomelli, J. W. Ochterski, 
 R. L. Martin, K. Morokuma, V. G. Zakrzewski, G. A. Voth, 
 P. Salvador, J. J. Dannenberg, S. Dapprich, A. D. Daniels, 
 O. Farkas, J. B. Foresman, J. V. Ortiz, J. Cioslowski, 
 and D. J. Fox, Gaussian, Inc., Wallingford CT, 2013.
 
 ******************************************
 Gaussian 09:  EM64L-G09RevD.01 24-Apr-2013
                16-May-2022 
 ******************************************
 %Mem=16GB
 %NProcShared=8
 Will use up to    8 processors via shared memory.
 ----------------------------------------------------------------------
 #P M062X/6-31+G** EmpiricalDispersion=GD3 SCRF(SMD,solvent=DiMethylSul
 foxide) Opt Freq
 ----------------------------------------------------------------------
 1/14=-1,18=20,19=15,26=3,38=1/1,3;
 2/9=110,12=2,17=6,18=5,40=1/2;
 3/5=1,6=6,7=111,11=2,16=1,25=1,30=1,70=32201,71=1,72=21,74=-55,124=31/1,2,3;
 4//1;
 5/5=2,38=5,53=21/2;
 6/7=2,8=2,9=2,10=2,28=1/1;
 7//1,2,3,16;
 1/14=-1,18=20,19=15,26=3/3(2);
 2/9=110/2;
 99//99;
 2/9=110/2;
 3/5=1,6=6,7=111,11=2,16=1,25=1,30=1,70=32205,71=1,72=21,74=-55,124=31/1,2,3;
 4/5=5,16=3,69=1/1;
 5/5=2,38=5,53=21/2;
 7//1,2,3,16;
 1/14=-1,18=20,19=15,26=3/3(-5);
 2/9=110/2;
 6/7=2,8=2,9=2,10=2,19=2,28=1/1;
 99/9=1/99;
 Leave Link    1 at Mon May 16 17:41:46 2022, MaxMem=  2147483648 cpu:         0.9
 (Enter /gpfs/runtime/opt/gaussian/g09-D01/g09/l101.exe)
 ---------
 4427-96-7
 ---------
 Symbolic Z-matrix:
 Charge =  1 Multiplicity = 1
 C                     3.1116    0.4034    0.0615 
 C                     1.8904    0.2228    0.4999 
 C                     0.7805   -0.0914   -0.4698 
 H                     1.1621   -0.1191   -1.4905 
 C                     0.1086   -1.4298   -0.1073 
 O                    -1.2726   -1.0622    0.1778 
 C                    -1.4177    0.2576    0.0189 
 O                    -2.472     0.8342    0.1936 
 O                    -0.2938    0.8864   -0.3519 
 H                     3.907     0.6286    0.7565 
 H                     3.3238    0.3227   -0.9943 
 H                     1.679     0.2991    1.5563 
 H                     0.1544   -2.1211   -0.9489 
 H                     0.5778   -1.867     0.774 
 Li                    0.8028   -5.1211   -0.0232 
 
 Add virtual bond connecting atoms Li15       and H13        Dist= 6.06D+00.
 Add virtual bond connecting atoms Li15       and H14        Dist= 6.35D+00.
 NAtoms=     15 NQM=       15 NQMF=       0 NMMI=      0 NMMIF=      0
                NMic=       0 NMicF=      0.
                    Isotopes and Nuclear Properties:
 (Nuclear quadrupole moments (NQMom) in fm**2, nuclear magnetic moments (NMagM)
  in nuclear magnetons)

  Atom         1           2           3           4           5           6           7           8           9          10
 IAtWgt=          12          12          12           1          12          16          12          16          16           1
 AtmWgt=  12.0000000  12.0000000  12.0000000   1.0078250  12.0000000  15.9949146  12.0000000  15.9949146  15.9949146   1.0078250
 NucSpn=           0           0           0           1           0           0           0           0           0           1
 AtZEff=   0.0000000   0.0000000   0.0000000   0.0000000   0.0000000   0.0000000   0.0000000   0.0000000   0.0000000   0.0000000
 NQMom=    0.0000000   0.0000000   0.0000000   0.0000000   0.0000000   0.0000000   0.0000000   0.0000000   0.0000000   0.0000000
 NMagM=    0.0000000   0.0000000   0.0000000   2.7928460   0.0000000   0.0000000   0.0000000   0.0000000   0.0000000   2.7928460
 AtZNuc=   6.0000000   6.0000000   6.0000000   1.0000000   6.0000000   8.0000000   6.0000000   8.0000000   8.0000000   1.0000000

  Atom        11          12          13          14          15
 IAtWgt=           1           1           1           1           7
 AtmWgt=   1.0078250   1.0078250   1.0078250   1.0078250   7.0160045
 NucSpn=           1           1           1           1           3
 AtZEff=   0.0000000   0.0000000   0.0000000   0.0000000   0.0000000
 NQMom=    0.0000000   0.0000000   0.0000000   0.0000000  -4.0100000
 NMagM=    2.7928460   2.7928460   2.7928460   2.7928460   3.2564240
 AtZNuc=   1.0000000   1.0000000   1.0000000   1.0000000   3.0000000
 Leave Link  101 at Mon May 16 17:41:47 2022, MaxMem=  2147483648 cpu:         2.3
 (Enter /gpfs/runtime/opt/gaussian/g09-D01/g09/l103.exe)

 GradGradGradGradGradGradGradGradGradGradGradGradGradGradGradGradGradGrad
 Berny optimization.
 Initialization pass.
                           ----------------------------
                           !    Initial Parameters    !
                           ! (Angstroms and Degrees)  !
 --------------------------                            --------------------------
 ! Name  Definition              Value          Derivative Info.                !
 --------------------------------------------------------------------------------
 ! R1    R(1,2)                  1.31           estimate D2E/DX2                !
 ! R2    R(1,10)                 1.08           estimate D2E/DX2                !
 ! R3    R(1,11)                 1.0799         estimate D2E/DX2                !
 ! R4    R(2,3)                  1.507          estimate D2E/DX2                !
 ! R5    R(2,12)                 1.08           estimate D2E/DX2                !
 ! R6    R(3,4)                  1.0901         estimate D2E/DX2                !
 ! R7    R(3,5)                  1.5408         estimate D2E/DX2                !
 ! R8    R(3,9)                  1.4574         estimate D2E/DX2                !
 ! R9    R(5,6)                  1.4574         estimate D2E/DX2                !
 ! R10   R(5,13)                 1.0901         estimate D2E/DX2                !
 ! R11   R(5,14)                 1.0899         estimate D2E/DX2                !
 ! R12   R(6,7)                  1.3372         estimate D2E/DX2                !
 ! R13   R(7,8)                  1.2143         estimate D2E/DX2                !
 ! R14   R(7,9)                  1.3402         estimate D2E/DX2                !
 ! R15   R(13,15)                3.2058         estimate D2E/DX2                !
 ! R16   R(14,15)                3.3579         estimate D2E/DX2                !
 ! A1    A(2,1,10)             119.9961         estimate D2E/DX2                !
 ! A2    A(2,1,11)             120.0029         estimate D2E/DX2                !
 ! A3    A(10,1,11)            120.0004         estimate D2E/DX2                !
 ! A4    A(1,2,3)              119.999          estimate D2E/DX2                !
 ! A5    A(1,2,12)             120.0033         estimate D2E/DX2                !
 ! A6    A(3,2,12)             119.9977         estimate D2E/DX2                !
 ! A7    A(2,3,4)              110.4876         estimate D2E/DX2                !
 ! A8    A(2,3,5)              110.5416         estimate D2E/DX2                !
 ! A9    A(2,3,9)              110.5461         estimate D2E/DX2                !
 ! A10   A(4,3,5)              110.5409         estimate D2E/DX2                !
 ! A11   A(4,3,9)              110.5389         estimate D2E/DX2                !
 ! A12   A(5,3,9)              104.0224         estimate D2E/DX2                !
 ! A13   A(3,5,6)              103.8976         estimate D2E/DX2                !
 ! A14   A(3,5,13)             110.5423         estimate D2E/DX2                !
 ! A15   A(3,5,14)             110.5443         estimate D2E/DX2                !
 ! A16   A(6,5,13)             110.536          estimate D2E/DX2                !
 ! A17   A(6,5,14)             110.5462         estimate D2E/DX2                !
 ! A18   A(13,5,14)            110.597          estimate D2E/DX2                !
 ! A19   A(5,6,7)              109.1792         estimate D2E/DX2                !
 ! A20   A(6,7,8)              123.077          estimate D2E/DX2                !
 ! A21   A(6,7,9)              113.8887         estimate D2E/DX2                !
 ! A22   A(8,7,9)              123.0342         estimate D2E/DX2                !
 ! A23   A(3,9,7)              109.0119         estimate D2E/DX2                !
 ! A24   A(5,13,15)            112.2729         estimate D2E/DX2                !
 ! A25   A(5,14,15)            103.0384         estimate D2E/DX2                !
 ! A26   A(13,15,14)            31.584          estimate D2E/DX2                !
 ! D1    D(10,1,2,3)           179.9986         estimate D2E/DX2                !
 ! D2    D(10,1,2,12)           -0.0002         estimate D2E/DX2                !
 ! D3    D(11,1,2,3)            -0.2775         estimate D2E/DX2                !
 ! D4    D(11,1,2,12)          179.7237         estimate D2E/DX2                !
 ! D5    D(1,2,3,4)             -0.7015         estimate D2E/DX2                !
 ! D6    D(1,2,3,5)            121.9826         estimate D2E/DX2                !
 ! D7    D(1,2,3,9)           -123.3863         estimate D2E/DX2                !
 ! D8    D(12,2,3,4)           179.2973         estimate D2E/DX2                !
 ! D9    D(12,2,3,5)           -58.0185         estimate D2E/DX2                !
 ! D10   D(12,2,3,9)            56.6125         estimate D2E/DX2                !
 ! D11   D(2,3,5,6)            118.6082         estimate D2E/DX2                !
 ! D12   D(2,3,5,13)          -122.7957         estimate D2E/DX2                !
 ! D13   D(2,3,5,14)            -0.0009         estimate D2E/DX2                !
 ! D14   D(4,3,5,6)           -118.7388         estimate D2E/DX2                !
 ! D15   D(4,3,5,13)            -0.1427         estimate D2E/DX2                !
 ! D16   D(4,3,5,14)           122.6521         estimate D2E/DX2                !
 ! D17   D(9,3,5,6)             -0.0697         estimate D2E/DX2                !
 ! D18   D(9,3,5,13)           118.5264         estimate D2E/DX2                !
 ! D19   D(9,3,5,14)          -118.6788         estimate D2E/DX2                !
 ! D20   D(2,3,9,7)           -118.5507         estimate D2E/DX2                !
 ! D21   D(4,3,9,7)            118.7945         estimate D2E/DX2                !
 ! D22   D(5,3,9,7)              0.1241         estimate D2E/DX2                !
 ! D23   D(3,5,6,7)             -0.0061         estimate D2E/DX2                !
 ! D24   D(13,5,6,7)          -118.6065         estimate D2E/DX2                !
 ! D25   D(14,5,6,7)           118.6017         estimate D2E/DX2                !
 ! D26   D(3,5,13,15)          139.5675         estimate D2E/DX2                !
 ! D27   D(6,5,13,15)         -105.9587         estimate D2E/DX2                !
 ! D28   D(14,5,13,15)          16.8035         estimate D2E/DX2                !
 ! D29   D(3,5,14,15)         -137.9615         estimate D2E/DX2                !
 ! D30   D(6,5,14,15)          107.5576         estimate D2E/DX2                !
 ! D31   D(13,5,14,15)         -15.1986         estimate D2E/DX2                !
 ! D32   D(5,6,7,8)           -179.9616         estimate D2E/DX2                !
 ! D33   D(5,6,7,9)              0.0913         estimate D2E/DX2                !
 ! D34   D(6,7,9,3)             -0.1403         estimate D2E/DX2                !
 ! D35   D(8,7,9,3)            179.9126         estimate D2E/DX2                !
 ! D36   D(5,13,15,14)          -9.6548         estimate D2E/DX2                !
 ! D37   D(5,14,15,13)           9.1678         estimate D2E/DX2                !
 --------------------------------------------------------------------------------
 Trust Radius=3.00D-01 FncErr=1.00D-07 GrdErr=1.00D-06
 Number of steps in this run=     89 maximum allowed number of steps=    100.
 GradGradGradGradGradGradGradGradGradGradGradGradGradGradGradGradGradGrad

 Leave Link  103 at Mon May 16 17:41:47 2022, MaxMem=  2147483648 cpu:         0.2
 (Enter /gpfs/runtime/opt/gaussian/g09-D01/g09/l202.exe)
                          Input orientation:                          
 ---------------------------------------------------------------------
 Center     Atomic      Atomic             Coordinates (Angstroms)
 Number     Number       Type             X           Y           Z
 ---------------------------------------------------------------------
      1          6           0        3.111600    0.403400    0.061500
      2          6           0        1.890400    0.222800    0.499900
      3          6           0        0.780500   -0.091400   -0.469800
      4          1           0        1.162100   -0.119100   -1.490500
      5          6           0        0.108600   -1.429800   -0.107300
      6          8           0       -1.272600   -1.062200    0.177800
      7          6           0       -1.417700    0.257600    0.018900
      8          8           0       -2.472000    0.834200    0.193600
      9          8           0       -0.293800    0.886400   -0.351900
     10          1           0        3.907000    0.628600    0.756500
     11          1           0        3.323800    0.322700   -0.994300
     12          1           0        1.679000    0.299100    1.556300
     13          1           0        0.154400   -2.121100   -0.948900
     14          1           0        0.577800   -1.867000    0.774000
     15          3           0        0.802800   -5.121100   -0.023200
 ---------------------------------------------------------------------
                    Distance matrix (angstroms):
                    1          2          3          4          5
     1  C    0.000000
     2  C    1.310015   0.000000
     3  C    2.441543   1.506956   0.000000
     4  H    2.546028   2.146860   1.090052   0.000000
     5  C    3.522375   2.504913   1.540834   2.177393   0.000000
     6  O    4.624145   3.429219   2.361580   3.098456   1.457438
     7  C    4.531846   3.343067   2.278752   3.012567   2.278780
     8  O    5.601752   4.415672   3.446098   4.117239   3.446119
     9  O    3.464237   2.436526   1.457434   2.104064   2.363586
    10  H    1.080001   2.072967   3.434707   3.625264   4.405792
    11  H    1.079933   2.072981   2.629630   2.261493   3.767696
    12  H    2.073077   1.080043   2.250527   3.118504   2.867545
    13  H    4.017342   3.256775   2.177434   2.305817   1.090084
    14  H    3.475991   2.483005   2.177356   2.919678   1.089946
    15  Li   5.988141   5.478483   5.049538   5.225138   3.756951
                    6          7          8          9         10
     6  O    0.000000
     7  C    1.337227   0.000000
     8  O    2.243912   1.214305   0.000000
     9  O    2.244031   1.340162   2.246074   0.000000
    10  H    5.479229   5.388332   6.407087   4.352210   0.000000
    11  H    4.941524   4.848983   5.938353   3.717185   1.870561
    12  H    3.530629   3.457582   4.401600   2.806793   2.390028
    13  H    2.104056   3.011038   4.115469   3.098766   4.954921
    14  H    2.104076   3.011000   4.115170   3.099766   4.160757
    15  Li   4.563152   5.819176   6.799773   6.115606   6.580505
                   11         12         13         14         15
    11  H    0.000000
    12  H    3.035043   0.000000
    13  H    4.002414   3.802341   0.000000
    14  H    3.932199   2.552768   1.792266   0.000000
    15  Li   6.077288   5.713240   3.205830   3.357874   0.000000
 Stoichiometry    C5H6LiO3(1+)
 Framework group  C1[X(C5H6LiO3)]
 Deg. of freedom    39
 Full point group                 C1      NOp   1
 Largest Abelian subgroup         C1      NOp   1
 Largest concise Abelian subgroup C1      NOp   1
                         Standard orientation:                         
 ---------------------------------------------------------------------
 Center     Atomic      Atomic             Coordinates (Angstroms)
 Number     Number       Type             X           Y           Z
 ---------------------------------------------------------------------
      1          6           0        2.883970   -1.031948   -0.051172
      2          6           0        1.694803   -0.707112   -0.494460
      3          6           0        0.630438   -0.249761    0.469321
      4          1           0        1.011065   -0.259245    1.490716
      5          6           0        0.128392    1.157406    0.092494
      6          8           0       -1.287063    0.959322   -0.192772
      7          6           0       -1.593261   -0.331107   -0.021859
      8          8           0       -2.710095   -0.775648   -0.193906
      9          8           0       -0.555563   -1.089450    0.357789
     10          1           0        3.646734   -1.359737   -0.741930
     11          1           0        3.102930   -0.967711    1.004378
     12          1           0        1.477178   -0.767087   -1.550649
     13          1           0        0.257454    1.845951    0.927678
     14          1           0        0.648982    1.525209   -0.791638
     15          3           0        1.270456    4.734653   -0.024463
 ---------------------------------------------------------------------
 Rotational constants (GHZ):      1.9330236      1.3489353      0.8384938
 Leave Link  202 at Mon May 16 17:41:47 2022, MaxMem=  2147483648 cpu:         0.6
 (Enter /gpfs/runtime/opt/gaussian/g09-D01/g09/l301.exe)
 Standard basis: 6-31+G(d,p) (6D, 7F)
 Ernie: Thresh=  0.10000D-02 Tol=  0.10000D-05 Strict=F.
 There are   201 symmetry adapted cartesian basis functions of A   symmetry.
 There are   201 symmetry adapted basis functions of A   symmetry.
   201 basis functions,   330 primitive gaussians,   201 cartesian basis functions
    31 alpha electrons       31 beta electrons
       nuclear repulsion energy       390.8617485520 Hartrees.
 IExCor= 4336 DFT=T Ex+Corr=M062X ExCW=0 ScaHFX=  0.540000
 ScaDFX=  1.000000  1.000000  1.000000  1.000000 ScalE2=  1.000000  1.000000
 IRadAn=      0 IRanWt=     -1 IRanGd=            0 ICorTp=0 IEmpDi=131
 NAtoms=   15 NActive=   15 NUniq=   15 SFac= 1.00D+00 NAtFMM=   60 NAOKFM=F Big=F
 Integral buffers will be    131072 words long.
 Raffenetti 2 integral format.
 Two-electron integral symmetry is turned on.
 R6Disp:  Grimme-D3 Dispersion energy=       -0.0005260971 Hartrees.
 Nuclear repulsion after empirical dispersion term =      390.8612224549 Hartrees.
 ------------------------------------------------------------------------------
 Polarizable Continuum Model (PCM)
 =================================
 Model                : PCM (using non-symmetric T matrix).
 Atomic radii         : SMD-Coulomb.
 Polarization charges : Total charges.
 Charge compensation  : None.
 Solution method      : On-the-fly selection.
 Cavity type          : VdW (van der Waals Surface) (Alpha=1.000).
 Cavity algorithm     : GePol (No added spheres)
                        Default sphere list used, NSphG=   15.
                        Lebedev-Laikov grids with approx.  5.0 points / Ang**2.
                        Smoothing algorithm: Karplus/York (Gamma=1.0000).
                        Polarization charges: spherical gaussians, with
                                              point-specific exponents (IZeta= 3).
                        Self-potential: point-specific (ISelfS= 7).
                        Self-field    : sphere-specific E.n sum rule (ISelfD= 2).
 1st derivatives      : Analytical E(r).r(x)/FMM algorithm (CHGder, D1EAlg=3).
                        Cavity 1st derivative terms included.
 Solvent              : DiMethylSulfoxide, Eps=  46.826000 Eps(inf)=   2.007889
 ------------------------------------------------------------------------------
 Spheres list:
 ISph  on   Nord     Re0    Alpha      Xe            Ye            Ze
    1   C      1    1.8500  1.000      2.883970     -1.031948     -0.051172
    2   C      2    1.8500  1.000      1.694803     -0.707112     -0.494460
    3   C      3    1.8500  1.000      0.630438     -0.249761      0.469321
    4   H      4    1.2000  1.000      1.011065     -0.259245      1.490716
    5   C      5    1.8500  1.000      0.128392      1.157406      0.092494
    6   O      6    2.2940  1.000     -1.287063      0.959322     -0.192772
    7   C      7    1.8500  1.000     -1.593261     -0.331107     -0.021859
    8   O      8    2.2940  1.000     -2.710095     -0.775648     -0.193906
    9   O      9    2.2940  1.000     -0.555563     -1.089450      0.357789
   10   H     10    1.2000  1.000      3.646734     -1.359737     -0.741930
   11   H     11    1.2000  1.000      3.102930     -0.967711      1.004378
   12   H     12    1.2000  1.000      1.477178     -0.767087     -1.550649
   13   H     13    1.2000  1.000      0.257454      1.845951      0.927678
   14   H     14    1.2000  1.000      0.648982      1.525209     -0.791638
   15  Li     15    1.8200  1.000      1.270456      4.734653     -0.024463
 ------------------------------------------------------------------------------
 Separa: There are  2 disjoint cavities,
 GePol: Number of generator spheres                  =      15
 GePol: Total number of spheres                      =      15
 GePol: Number of exposed spheres                    =      15 (100.00%)
 GePol: Number of points                             =    1640
 GePol: Average weight of points                     =       0.13
 GePol: Minimum weight of points                     =   0.39D-10
 GePol: Maximum weight of points                     =    0.17992
 GePol: Number of points with low weight             =      63
 GePol: Fraction of low-weight points (<1% of avg)   =       3.84%
 ------------------------------------------------------------------------------
 Atomic radii for non-electrostatic terms: SMD-CDS.
 ------------------------------------------------------------------------------
 PCM non-electrostatic energy =         0.0008672112 Hartrees.
 Nuclear repulsion after PCM non-electrostatic terms =      390.8620896662 Hartrees.
 Leave Link  301 at Mon May 16 17:41:47 2022, MaxMem=  2147483648 cpu:         0.9
 (Enter /gpfs/runtime/opt/gaussian/g09-D01/g09/l302.exe)
 NPDir=0 NMtPBC=     1 NCelOv=     1 NCel=       1 NClECP=     1 NCelD=      1
         NCelK=      1 NCelE2=     1 NClLst=     1 CellRange=     0.0.
 One-electron integrals computed using PRISM.
 NBasis=   201 RedAO= T EigKep=  2.26D-05  NBF=   201
 NBsUse=   201 1.00D-06 EigRej= -1.00D+00 NBFU=   201
 Precomputing XC quadrature grid using
 IXCGrd= 4 IRadAn=           0 IRanWt=          -1 IRanGd=           0 AccXCQ= 0.00D+00.
 Generated NRdTot=       0 NPtTot=           0 NUsed=           0 NTot=          32
 NSgBfM=   201   201   201   201   201 MxSgAt=    15 MxSgA2=    15.
 Leave Link  302 at Mon May 16 17:41:47 2022, MaxMem=  2147483648 cpu:         1.6
 (Enter /gpfs/runtime/opt/gaussian/g09-D01/g09/l303.exe)
 DipDrv:  MaxL=1.
 Leave Link  303 at Mon May 16 17:41:47 2022, MaxMem=  2147483648 cpu:         0.4
 (Enter /gpfs/runtime/opt/gaussian/g09-D01/g09/l401.exe)
 ExpMin= 7.40D-03 ExpMax= 5.48D+03 ExpMxC= 8.25D+02 IAcc=3 IRadAn=         5 AccDes= 0.00D+00
 Harris functional with IExCor= 1009 and IRadAn=       5 diagonalized for initial guess.
 HarFok:  IExCor= 1009 AccDes= 0.00D+00 IRadAn=         5 IDoV= 1 UseB2=F ITyADJ=14
 ICtDFT=  3500011 ScaDFX=  1.000000  1.000000  1.000000  1.000000
 FoFCou: FMM=F IPFlag=           0 FMFlag=      100000 FMFlg1=           0
         NFxFlg=           0 DoJE=T BraDBF=F KetDBF=T FulRan=T
         wScrn=  0.000000 ICntrl=     500 IOpCl=  0 I1Cent=   200000004 NGrid=           0
         NMat0=    1 NMatS0=      1 NMatT0=    0 NMatD0=    1 NMtDS0=    0 NMtDT0=    0
 Petite list used in FoFCou.
 Harris En= -426.791202856241    
 JPrj=0 DoOrth=F DoCkMO=F.
 Leave Link  401 at Mon May 16 17:41:48 2022, MaxMem=  2147483648 cpu:         5.6
 (Enter /gpfs/runtime/opt/gaussian/g09-D01/g09/l502.exe)
 Closed shell SCF:
 Using DIIS extrapolation, IDIIS=  1040.
 Integral symmetry usage will be decided dynamically.
 Keep R1 ints in memory in canonical form, NReq=212234386.
 IVT=      142861 IEndB=      142861 NGot=  2147483648 MDV=  1941265337
 LenX=  1941265337 LenY=  1941224495
 Requested convergence on RMS density matrix=1.00D-08 within 128 cycles.
 Requested convergence on MAX density matrix=1.00D-06.
 Requested convergence on             energy=1.00D-06.
 No special actions if energy rises.
 FoFCou: FMM=F IPFlag=           0 FMFlag=           0 FMFlg1=           0
         NFxFlg=           0 DoJE=F BraDBF=F KetDBF=F FulRan=T
         wScrn=  0.000000 ICntrl=     600 IOpCl=  0 I1Cent=           0 NGrid=           0
         NMat0=    1 NMatS0=  20301 NMatT0=    0 NMatD0=    1 NMtDS0=    0 NMtDT0=    0
 Symmetry not used in FoFCou.

 Cycle   1  Pass 1  IDiag  1:
 PCMQM: There is more than one cavity, setting IComp=0.
 Inv3:  Mode=1 IEnd=     8068800.
 Iteration    1 A*A^-1 deviation from unit magnitude is 6.22D-15 for    297.
 Iteration    1 A*A^-1 deviation from orthogonality  is 6.53D-15 for    928    257.
 Iteration    1 A^-1*A deviation from unit magnitude is 7.33D-15 for    381.
 Iteration    1 A^-1*A deviation from orthogonality  is 4.39D-09 for   1041   1003.
 Iteration    2 A*A^-1 deviation from unit magnitude is 9.10D-15 for    565.
 Iteration    2 A*A^-1 deviation from orthogonality  is 5.59D-15 for    606     34.
 Iteration    2 A^-1*A deviation from unit magnitude is 1.78D-15 for    307.
 Iteration    2 A^-1*A deviation from orthogonality  is 5.61D-16 for   1530   1084.
 E= -426.898852464044    
 DIIS: error= 2.25D-02 at cycle   1 NSaved=   1.
 NSaved= 1 IEnMin= 1 EnMin= -426.898852464044     IErMin= 1 ErrMin= 2.25D-02
 ErrMax= 2.25D-02  0.00D+00 EMaxC= 1.00D-01 BMatC= 2.36D-01 BMatP= 2.36D-01
 IDIUse=3 WtCom= 7.75D-01 WtEn= 2.25D-01
 Coeff-Com:  0.100D+01
 Coeff-En:   0.100D+01
 Coeff:      0.100D+01
 Gap=     0.512 Goal=   None    Shift=    0.000
 GapD=    0.512 DampG=2.000 DampE=0.500 DampFc=1.0000 IDamp=-1.
 RMSDP=7.15D-03 MaxDP=3.97D-01              OVMax= 2.05D-01

 Cycle   2  Pass 1  IDiag  1:
 PCMQM: There is more than one cavity, setting IComp=0.
 E= -426.880499329225     Delta-E=        0.018353134819 Rises=F Damp=F
 DIIS: error= 3.37D-02 at cycle   2 NSaved=   2.
 NSaved= 2 IEnMin= 1 EnMin= -426.898852464044     IErMin= 1 ErrMin= 2.25D-02
 ErrMax= 3.37D-02  0.00D+00 EMaxC= 1.00D-01 BMatC= 2.59D-01 BMatP= 2.36D-01
 IDIUse=3 WtCom= 6.63D-01 WtEn= 3.37D-01
 Coeff-Com:  0.513D+00 0.487D+00
 Coeff-En:   0.526D+00 0.474D+00
 Coeff:      0.517D+00 0.483D+00
 Gap=     0.306 Goal=   None    Shift=    0.000
 RMSDP=3.57D-03 MaxDP=2.33D-01 DE= 1.84D-02 OVMax= 1.17D-01

 Cycle   3  Pass 1  IDiag  1:
 PCMQM: There is more than one cavity, setting IComp=0.
 E= -427.069528351032     Delta-E=       -0.189029021807 Rises=F Damp=F
 DIIS: error= 6.74D-03 at cycle   3 NSaved=   3.
 NSaved= 3 IEnMin= 3 EnMin= -427.069528351032     IErMin= 3 ErrMin= 6.74D-03
 ErrMax= 6.74D-03  0.00D+00 EMaxC= 1.00D-01 BMatC= 1.27D-02 BMatP= 2.36D-01
 IDIUse=3 WtCom= 9.33D-01 WtEn= 6.74D-02
 Coeff-Com:  0.133D+00 0.209D+00 0.658D+00
 Coeff-En:   0.000D+00 0.000D+00 0.100D+01
 Coeff:      0.124D+00 0.195D+00 0.681D+00
 Gap=     0.330 Goal=   None    Shift=    0.000
 RMSDP=7.84D-04 MaxDP=2.90D-02 DE=-1.89D-01 OVMax= 4.21D-02

 Cycle   4  Pass 1  IDiag  1:
 PCMQM: There is more than one cavity, setting IComp=0.
 E= -427.077803462101     Delta-E=       -0.008275111068 Rises=F Damp=F
 DIIS: error= 1.97D-03 at cycle   4 NSaved=   4.
 NSaved= 4 IEnMin= 4 EnMin= -427.077803462101     IErMin= 4 ErrMin= 1.97D-03
 ErrMax= 1.97D-03  0.00D+00 EMaxC= 1.00D-01 BMatC= 1.90D-03 BMatP= 1.27D-02
 IDIUse=3 WtCom= 9.80D-01 WtEn= 1.97D-02
 Coeff-Com:  0.363D-02 0.332D-01 0.319D+00 0.644D+00
 Coeff-En:   0.000D+00 0.000D+00 0.874D-01 0.913D+00
 Coeff:      0.356D-02 0.325D-01 0.314D+00 0.649D+00
 Gap=     0.322 Goal=   None    Shift=    0.000
 RMSDP=2.62D-04 MaxDP=6.29D-03 DE=-8.28D-03 OVMax= 9.56D-03

 Cycle   5  Pass 1  IDiag  1:
 PCMQM: There is more than one cavity, setting IComp=0.
 E= -427.079223972187     Delta-E=       -0.001420510087 Rises=F Damp=F
 DIIS: error= 3.53D-04 at cycle   5 NSaved=   5.
 NSaved= 5 IEnMin= 5 EnMin= -427.079223972187     IErMin= 5 ErrMin= 3.53D-04
 ErrMax= 3.53D-04  0.00D+00 EMaxC= 1.00D-01 BMatC= 6.66D-05 BMatP= 1.90D-03
 IDIUse=3 WtCom= 9.96D-01 WtEn= 3.53D-03
 Coeff-Com: -0.269D-02 0.645D-02 0.113D+00 0.284D+00 0.600D+00
 Coeff-En:   0.000D+00 0.000D+00 0.000D+00 0.000D+00 0.100D+01
 Coeff:     -0.268D-02 0.643D-02 0.113D+00 0.283D+00 0.601D+00
 Gap=     0.321 Goal=   None    Shift=    0.000
 RMSDP=5.00D-05 MaxDP=1.85D-03 DE=-1.42D-03 OVMax= 1.65D-03

 Cycle   6  Pass 1  IDiag  1:
 PCMQM: There is more than one cavity, setting IComp=0.
 E= -427.079274008180     Delta-E=       -0.000050035993 Rises=F Damp=F
 DIIS: error= 9.20D-05 at cycle   6 NSaved=   6.
 NSaved= 6 IEnMin= 6 EnMin= -427.079274008180     IErMin= 6 ErrMin= 9.20D-05
 ErrMax= 9.20D-05  0.00D+00 EMaxC= 1.00D-01 BMatC= 3.74D-06 BMatP= 6.66D-05
 IDIUse=1 WtCom= 1.00D+00 WtEn= 0.00D+00
 Coeff-Com: -0.123D-02-0.785D-03 0.127D-01 0.385D-01 0.212D+00 0.739D+00
 Coeff:     -0.123D-02-0.785D-03 0.127D-01 0.385D-01 0.212D+00 0.739D+00
 Gap=     0.321 Goal=   None    Shift=    0.000
 RMSDP=1.74D-05 MaxDP=4.08D-04 DE=-5.00D-05 OVMax= 4.01D-04

 Cycle   7  Pass 1  IDiag  1:
 PCMQM: There is more than one cavity, setting IComp=0.
 E= -427.079277324287     Delta-E=       -0.000003316107 Rises=F Damp=F
 DIIS: error= 2.89D-05 at cycle   7 NSaved=   7.
 NSaved= 7 IEnMin= 7 EnMin= -427.079277324287     IErMin= 7 ErrMin= 2.89D-05
 ErrMax= 2.89D-05  0.00D+00 EMaxC= 1.00D-01 BMatC= 2.34D-07 BMatP= 3.74D-06
 IDIUse=1 WtCom= 1.00D+00 WtEn= 0.00D+00
 Coeff-Com: -0.618D-05-0.923D-03-0.681D-02-0.190D-01-0.273D-02 0.136D+00
 Coeff-Com:  0.893D+00
 Coeff:     -0.618D-05-0.923D-03-0.681D-02-0.190D-01-0.273D-02 0.136D+00
 Coeff:      0.893D+00
 Gap=     0.321 Goal=   None    Shift=    0.000
 RMSDP=6.78D-06 MaxDP=2.00D-04 DE=-3.32D-06 OVMax= 2.23D-04

 Cycle   8  Pass 1  IDiag  1:
 PCMQM: There is more than one cavity, setting IComp=0.
 E= -427.079277641961     Delta-E=       -0.000000317673 Rises=F Damp=F
 DIIS: error= 8.01D-06 at cycle   8 NSaved=   8.
 NSaved= 8 IEnMin= 8 EnMin= -427.079277641961     IErMin= 8 ErrMin= 8.01D-06
 ErrMax= 8.01D-06  0.00D+00 EMaxC= 1.00D-01 BMatC= 3.09D-08 BMatP= 2.34D-07
 IDIUse=1 WtCom= 1.00D+00 WtEn= 0.00D+00
 Coeff-Com:  0.125D-03-0.224D-03-0.276D-02-0.925D-02-0.193D-01-0.373D-01
 Coeff-Com:  0.239D+00 0.829D+00
 Coeff:      0.125D-03-0.224D-03-0.276D-02-0.925D-02-0.193D-01-0.373D-01
 Coeff:      0.239D+00 0.829D+00
 Gap=     0.321 Goal=   None    Shift=    0.000
 RMSDP=2.03D-06 MaxDP=5.72D-05 DE=-3.18D-07 OVMax= 8.25D-05

 Cycle   9  Pass 1  IDiag  1:
 PCMQM: There is more than one cavity, setting IComp=0.
 E= -427.079277681144     Delta-E=       -0.000000039183 Rises=F Damp=F
 DIIS: error= 1.86D-06 at cycle   9 NSaved=   9.
 NSaved= 9 IEnMin= 9 EnMin= -427.079277681144     IErMin= 9 ErrMin= 1.86D-06
 ErrMax= 1.86D-06  0.00D+00 EMaxC= 1.00D-01 BMatC= 1.83D-09 BMatP= 3.09D-08
 IDIUse=1 WtCom= 1.00D+00 WtEn= 0.00D+00
 Coeff-Com:  0.195D-04 0.286D-04 0.286D-03 0.278D-03-0.218D-02-0.176D-01
 Coeff-Com: -0.454D-01 0.119D+00 0.946D+00
 Coeff:      0.195D-04 0.286D-04 0.286D-03 0.278D-03-0.218D-02-0.176D-01
 Coeff:     -0.454D-01 0.119D+00 0.946D+00
 Gap=     0.321 Goal=   None    Shift=    0.000
 RMSDP=7.29D-07 MaxDP=2.03D-05 DE=-3.92D-08 OVMax= 2.45D-05

 Cycle  10  Pass 1  IDiag  1:
 PCMQM: There is more than one cavity, setting IComp=0.
 E= -427.079277683650     Delta-E=       -0.000000002506 Rises=F Damp=F
 DIIS: error= 7.11D-07 at cycle  10 NSaved=  10.
 NSaved=10 IEnMin=10 EnMin= -427.079277683650     IErMin=10 ErrMin= 7.11D-07
 ErrMax= 7.11D-07  0.00D+00 EMaxC= 1.00D-01 BMatC= 3.84D-10 BMatP= 1.83D-09
 IDIUse=1 WtCom= 1.00D+00 WtEn= 0.00D+00
 Coeff-Com: -0.367D-06 0.275D-04 0.349D-03 0.800D-03 0.495D-03-0.492D-02
 Coeff-Com: -0.355D-01-0.623D-02 0.428D+00 0.617D+00
 Coeff:     -0.367D-06 0.275D-04 0.349D-03 0.800D-03 0.495D-03-0.492D-02
 Coeff:     -0.355D-01-0.623D-02 0.428D+00 0.617D+00
 Gap=     0.321 Goal=   None    Shift=    0.000
 RMSDP=1.64D-07 MaxDP=5.13D-06 DE=-2.51D-09 OVMax= 9.85D-06

 Cycle  11  Pass 1  IDiag  1:
 PCMQM: There is more than one cavity, setting IComp=0.
 E= -427.079277684057     Delta-E=       -0.000000000407 Rises=F Damp=F
 DIIS: error= 1.64D-07 at cycle  11 NSaved=  11.
 NSaved=11 IEnMin=11 EnMin= -427.079277684057     IErMin=11 ErrMin= 1.64D-07
 ErrMax= 1.64D-07  0.00D+00 EMaxC= 1.00D-01 BMatC= 2.18D-11 BMatP= 3.84D-10
 IDIUse=1 WtCom= 1.00D+00 WtEn= 0.00D+00
 Coeff-Com: -0.212D-05 0.418D-05 0.714D-04 0.194D-03 0.391D-03 0.701D-03
 Coeff-Com: -0.506D-02-0.195D-01 0.240D-02 0.175D+00 0.846D+00
 Coeff:     -0.212D-05 0.418D-05 0.714D-04 0.194D-03 0.391D-03 0.701D-03
 Coeff:     -0.506D-02-0.195D-01 0.240D-02 0.175D+00 0.846D+00
 Gap=     0.321 Goal=   None    Shift=    0.000
 RMSDP=5.85D-08 MaxDP=1.70D-06 DE=-4.07D-10 OVMax= 2.07D-06

 Cycle  12  Pass 1  IDiag  1:
 PCMQM: There is more than one cavity, setting IComp=0.
 E= -427.079277684072     Delta-E=       -0.000000000014 Rises=F Damp=F
 DIIS: error= 3.22D-08 at cycle  12 NSaved=  12.
 NSaved=12 IEnMin=12 EnMin= -427.079277684072     IErMin=12 ErrMin= 3.22D-08
 ErrMax= 3.22D-08  0.00D+00 EMaxC= 1.00D-01 BMatC= 1.09D-12 BMatP= 2.18D-11
 IDIUse=1 WtCom= 1.00D+00 WtEn= 0.00D+00
 Coeff-Com: -0.370D-06-0.579D-06 0.795D-06 0.328D-05 0.641D-04 0.404D-03
 Coeff-Com:  0.707D-03-0.375D-02-0.220D-01 0.855D-03 0.183D+00 0.841D+00
 Coeff:     -0.370D-06-0.579D-06 0.795D-06 0.328D-05 0.641D-04 0.404D-03
 Coeff:      0.707D-03-0.375D-02-0.220D-01 0.855D-03 0.183D+00 0.841D+00
 Gap=     0.321 Goal=   None    Shift=    0.000
 RMSDP=1.40D-08 MaxDP=3.80D-07 DE=-1.43D-11 OVMax= 3.93D-07

 Cycle  13  Pass 1  IDiag  1:
 PCMQM: There is more than one cavity, setting IComp=0.
 E= -427.079277684082     Delta-E=       -0.000000000010 Rises=F Damp=F
 DIIS: error= 1.80D-08 at cycle  13 NSaved=  13.
 NSaved=13 IEnMin=13 EnMin= -427.079277684082     IErMin=13 ErrMin= 1.80D-08
 ErrMax= 1.80D-08  0.00D+00 EMaxC= 1.00D-01 BMatC= 2.51D-13 BMatP= 1.09D-12
 IDIUse=1 WtCom= 1.00D+00 WtEn= 0.00D+00
 Coeff-Com:  0.523D-07-0.680D-06-0.614D-05-0.177D-04-0.124D-04 0.881D-04
 Coeff-Com:  0.803D-03 0.587D-03-0.986D-02-0.205D-01-0.116D-01 0.369D+00
 Coeff-Com:  0.672D+00
 Coeff:      0.523D-07-0.680D-06-0.614D-05-0.177D-04-0.124D-04 0.881D-04
 Coeff:      0.803D-03 0.587D-03-0.986D-02-0.205D-01-0.116D-01 0.369D+00
 Coeff:      0.672D+00
 Gap=     0.321 Goal=   None    Shift=    0.000
 RMSDP=4.39D-09 MaxDP=1.09D-07 DE=-1.00D-11 OVMax= 9.26D-08

 PCMQM: There is more than one cavity, setting IComp=0.
 Error on total polarization charges =  0.01812
 SCF Done:  E(RM062X) =  -427.079277684     A.U. after   13 cycles
            NFock= 13  Conv=0.44D-08     -V/T= 2.0087
 KE= 4.233937592856D+02 PE=-1.771816346439D+03 EE= 5.304812198034D+02
 SMD-CDS (non-electrostatic) energy       (kcal/mol) =       0.54
 (included in total energy above)
 Leave Link  502 at Mon May 16 17:42:05 2022, MaxMem=  2147483648 cpu:       102.6
 (Enter /gpfs/runtime/opt/gaussian/g09-D01/g09/l601.exe)
 Copying SCF densities to generalized density rwf, IOpCl= 0 IROHF=0.

 **********************************************************************

            Population analysis using the SCF density.

 **********************************************************************

 Orbital symmetries:
       Occupied  (A) (A) (A) (A) (A) (A) (A) (A) (A) (A) (A) (A)
                 (A) (A) (A) (A) (A) (A) (A) (A) (A) (A) (A) (A)
                 (A) (A) (A) (A) (A) (A) (A)
       Virtual   (A) (A) (A) (A) (A) (A) (A) (A) (A) (A) (A) (A)
                 (A) (A) (A) (A) (A) (A) (A) (A) (A) (A) (A) (A)
                 (A) (A) (A) (A) (A) (A) (A) (A) (A) (A) (A) (A)
                 (A) (A) (A) (A) (A) (A) (A) (A) (A) (A) (A) (A)
                 (A) (A) (A) (A) (A) (A) (A) (A) (A) (A) (A) (A)
                 (A) (A) (A) (A) (A) (A) (A) (A) (A) (A) (A) (A)
                 (A) (A) (A) (A) (A) (A) (A) (A) (A) (A) (A) (A)
                 (A) (A) (A) (A) (A) (A) (A) (A) (A) (A) (A) (A)
                 (A) (A) (A) (A) (A) (A) (A) (A) (A) (A) (A) (A)
                 (A) (A) (A) (A) (A) (A) (A) (A) (A) (A) (A) (A)
                 (A) (A) (A) (A) (A) (A) (A) (A) (A) (A) (A) (A)
                 (A) (A) (A) (A) (A) (A) (A) (A) (A) (A) (A) (A)
                 (A) (A) (A) (A) (A) (A) (A) (A) (A) (A) (A) (A)
                 (A) (A) (A) (A) (A) (A) (A) (A) (A) (A) (A) (A)
                 (A) (A)
 The electronic state is 1-A.
 Alpha  occ. eigenvalues --  -19.71373 -19.71295 -19.64141 -10.74137 -10.62952
 Alpha  occ. eigenvalues --  -10.62069 -10.55862 -10.54918  -2.22722  -1.29692
 Alpha  occ. eigenvalues --   -1.18131  -1.15843  -0.92306  -0.84818  -0.76516
 Alpha  occ. eigenvalues --   -0.70511  -0.66707  -0.61454  -0.59838  -0.58960
 Alpha  occ. eigenvalues --   -0.52967  -0.51995  -0.51359  -0.50099  -0.46820
 Alpha  occ. eigenvalues --   -0.44663  -0.43287  -0.38455  -0.38170  -0.37928
 Alpha  occ. eigenvalues --   -0.33971
 Alpha virt. eigenvalues --   -0.01839   0.00156   0.00478   0.00534   0.01818
 Alpha virt. eigenvalues --    0.02419   0.03792   0.04573   0.04717   0.04937
 Alpha virt. eigenvalues --    0.05338   0.05487   0.06463   0.06570   0.07203
 Alpha virt. eigenvalues --    0.07420   0.08764   0.09180   0.10106   0.10839
 Alpha virt. eigenvalues --    0.11535   0.12654   0.12994   0.14377   0.15398
 Alpha virt. eigenvalues --    0.15660   0.16282   0.16811   0.17533   0.18158
 Alpha virt. eigenvalues --    0.19790   0.20234   0.21550   0.22841   0.23551
 Alpha virt. eigenvalues --    0.24190   0.24684   0.25076   0.26186   0.27523
 Alpha virt. eigenvalues --    0.29135   0.29669   0.29842   0.30134   0.30992
 Alpha virt. eigenvalues --    0.31513   0.32493   0.33309   0.34259   0.34814
 Alpha virt. eigenvalues --    0.37372   0.38309   0.40452   0.41803   0.43187
 Alpha virt. eigenvalues --    0.44419   0.44711   0.46830   0.49444   0.51104
 Alpha virt. eigenvalues --    0.51327   0.53470   0.55391   0.56887   0.57951
 Alpha virt. eigenvalues --    0.65373   0.68955   0.70758   0.73795   0.75291
 Alpha virt. eigenvalues --    0.77014   0.79784   0.80517   0.84942   0.87545
 Alpha virt. eigenvalues --    0.89369   0.90553   0.95708   0.98402   0.99494
 Alpha virt. eigenvalues --    1.02434   1.02689   1.05853   1.08531   1.11547
 Alpha virt. eigenvalues --    1.15354   1.17910   1.20474   1.23469   1.26317
 Alpha virt. eigenvalues --    1.29755   1.30317   1.31810   1.34261   1.35016
 Alpha virt. eigenvalues --    1.36242   1.38280   1.39914   1.42522   1.44486
 Alpha virt. eigenvalues --    1.45131   1.48390   1.49811   1.52502   1.53588
 Alpha virt. eigenvalues --    1.61826   1.65983   1.69066   1.72670   1.75519
 Alpha virt. eigenvalues --    1.79802   1.85272   1.86836   1.88490   1.88731
 Alpha virt. eigenvalues --    1.90983   1.91825   1.95866   1.96544   1.99301
 Alpha virt. eigenvalues --    1.99484   2.03697   2.07406   2.09968   2.13836
 Alpha virt. eigenvalues --    2.15787   2.17810   2.19989   2.25480   2.30412
 Alpha virt. eigenvalues --    2.33869   2.40820   2.44579   2.46421   2.51767
 Alpha virt. eigenvalues --    2.52859   2.55302   2.56855   2.61464   2.62355
 Alpha virt. eigenvalues --    2.64997   2.66780   2.70127   2.72011   2.75359
 Alpha virt. eigenvalues --    2.81290   2.83797   2.88055   2.88687   2.90817
 Alpha virt. eigenvalues --    2.93750   2.96985   3.05457   3.11624   3.24362
 Alpha virt. eigenvalues --    3.25977   3.31059   3.33111   3.40809   3.46292
 Alpha virt. eigenvalues --    3.50692   3.68952   4.18466   4.36383   4.43379
 Alpha virt. eigenvalues --    4.49130   4.61618   4.65494   4.67107   4.79389
          Condensed to atoms (all electrons):
               1          2          3          4          5          6
     1  C    5.371263   0.011950   0.135763   0.020808   0.041330  -0.004941
     2  C    0.011950   6.157688  -0.268656  -0.083900  -0.051630  -0.025086
     3  C    0.135763  -0.268656   6.244521   0.390189  -0.167752   0.030983
     4  H    0.020808  -0.083900   0.390189   0.480183  -0.005440   0.001412
     5  C    0.041330  -0.051630  -0.167752  -0.005440   5.519860   0.119110
     6  O   -0.004941  -0.025086   0.030983   0.001412   0.119110   8.390454
     7  C   -0.035376   0.129501  -0.357954   0.010389  -0.022988   0.203158
     8  O    0.001531   0.017066  -0.033908  -0.000458   0.027076  -0.114924
     9  O   -0.008445  -0.140209   0.375625  -0.030701  -0.136916  -0.152737
    10  H    0.401527  -0.046880   0.006748   0.000245   0.002322   0.000038
    11  H    0.432790  -0.086438  -0.000130   0.002461   0.008748  -0.000100
    12  H    0.011475   0.310698  -0.007687   0.002330   0.016276  -0.000806
    13  H    0.007464  -0.003761  -0.036386  -0.005136   0.404085  -0.036730
    14  H   -0.017221   0.054673  -0.125201   0.002912   0.430152  -0.034990
    15  Li   0.000942  -0.004456  -0.002765   0.000058   0.002931   0.000126
               7          8          9         10         11         12
     1  C   -0.035376   0.001531  -0.008445   0.401527   0.432790   0.011475
     2  C    0.129501   0.017066  -0.140209  -0.046880  -0.086438   0.310698
     3  C   -0.357954  -0.033908   0.375625   0.006748  -0.000130  -0.007687
     4  H    0.010389  -0.000458  -0.030701   0.000245   0.002461   0.002330
     5  C   -0.022988   0.027076  -0.136916   0.002322   0.008748   0.016276
     6  O    0.203158  -0.114924  -0.152737   0.000038  -0.000100  -0.000806
     7  C    4.572459   0.488966   0.200191   0.000135  -0.000162  -0.003159
     8  O    0.488966   8.294623  -0.104427  -0.000004   0.000001  -0.000070
     9  O    0.200191  -0.104427   8.339033   0.000163   0.000342   0.002313
    10  H    0.000135  -0.000004   0.000163   0.475748  -0.023400  -0.004516
    11  H   -0.000162   0.000001   0.000342  -0.023400   0.478369   0.003290
    12  H   -0.003159  -0.000070   0.002313  -0.004516   0.003290   0.465075
    13  H    0.004383  -0.000477   0.003951   0.000005  -0.000044  -0.000017
    14  H    0.017502  -0.000308   0.004190  -0.000029   0.000048   0.001009
    15  Li  -0.000261  -0.000387  -0.000287   0.000001   0.000006   0.000054
              13         14         15
     1  C    0.007464  -0.017221   0.000942
     2  C   -0.003761   0.054673  -0.004456
     3  C   -0.036386  -0.125201  -0.002765
     4  H   -0.005136   0.002912   0.000058
     5  C    0.404085   0.430152   0.002931
     6  O   -0.036730  -0.034990   0.000126
     7  C    0.004383   0.017502  -0.000261
     8  O   -0.000477  -0.000308  -0.000387
     9  O    0.003951   0.004190  -0.000287
    10  H    0.000005  -0.000029   0.000001
    11  H   -0.000044   0.000048   0.000006
    12  H   -0.000017   0.001009   0.000054
    13  H    0.475572  -0.030418   0.000406
    14  H   -0.030418   0.485965  -0.000706
    15  Li   0.000406  -0.000706   2.004261
 Mulliken charges:
               1
     1  C   -0.370860
     2  C    0.029442
     3  C   -0.183389
     4  H    0.214649
     5  C   -0.187163
     6  O   -0.374964
     7  C    0.793216
     8  O   -0.574299
     9  O   -0.352084
    10  H    0.187898
    11  H    0.184219
    12  H    0.203737
    13  H    0.217102
    14  H    0.212421
    15  Li   1.000076
 Sum of Mulliken charges =   1.00000
 Mulliken charges with hydrogens summed into heavy atoms:
               1
     1  C    0.001256
     2  C    0.233178
     3  C    0.031260
     5  C    0.242361
     6  O   -0.374964
     7  C    0.793216
     8  O   -0.574299
     9  O   -0.352084
    15  Li   1.000076
 Electronic spatial extent (au):  <R**2>=           1167.2875
 Charge=              1.0000 electrons
 Dipole moment (field-independent basis, Debye):
    X=             13.4842    Y=             25.4265    Z=              0.9206  Tot=             28.7954
 Quadrupole moment (field-independent basis, Debye-Ang):
   XX=            -50.1797   YY=             57.3617   ZZ=            -42.5876
   XY=             24.7762   XZ=             -1.2847   YZ=              1.0102
 Traceless Quadrupole moment (field-independent basis, Debye-Ang):
   XX=            -38.3778   YY=             69.1635   ZZ=            -30.7858
   XY=             24.7762   XZ=             -1.2847   YZ=              1.0102
 Octapole moment (field-independent basis, Debye-Ang**2):
  XXX=             64.5416  YYY=            550.4270  ZZZ=              1.4645  XYY=            143.3950
  XXY=             47.8677  XXZ=              4.7772  XZZ=              4.3184  YZZ=              9.2213
  YYZ=             -2.1832  XYZ=              0.1540
 Hexadecapole moment (field-independent basis, Debye-Ang**3):
 XXXX=           -991.8358 YYYY=           2075.9993 ZZZZ=            -87.2253 XXXY=             25.3371
 XXXZ=            -14.3983 YYYX=            693.3333 YYYZ=            -10.7216 ZZZX=              1.8233
 ZZZY=              0.6258 XXYY=            -49.1238 XXZZ=           -158.4435 YYZZ=            -67.3042
 XXYZ=              2.1463 YYXZ=             -5.5277 ZZXY=              9.2398
 N-N= 3.908620896662D+02 E-N=-1.771816347827D+03  KE= 4.233937592856D+02
 No NMR shielding tensors so no spin-rotation constants.
 Leave Link  601 at Mon May 16 17:42:05 2022, MaxMem=  2147483648 cpu:         1.4
 (Enter /gpfs/runtime/opt/gaussian/g09-D01/g09/l701.exe)
 Compute integral first derivatives.
 ... and contract with generalized density number  0.
 R6Disp: Adding Grimme-D3 dispersion energy 1st derivatives to the gradient.
 D1PCM: PCM CHGder 1st derivatives, ID1Alg=3 FixD1E=F DoIter=F DoCFld=F I1PDM=0.
 GePol: Maximum number of non-zero 1st derivatives   =     313
 Leave Link  701 at Mon May 16 17:42:05 2022, MaxMem=  2147483648 cpu:         4.6
 (Enter /gpfs/runtime/opt/gaussian/g09-D01/g09/l702.exe)
 L702 exits ... SP integral derivatives will be done elsewhere.
 Leave Link  702 at Mon May 16 17:42:06 2022, MaxMem=  2147483648 cpu:         0.1
 (Enter /gpfs/runtime/opt/gaussian/g09-D01/g09/l703.exe)
 Compute integral first derivatives, UseDBF=F ICtDFT=           0.
 Integral derivatives from FoFJK, PRISM(SPDF).
 Calling FoFJK, ICntrl=      2127 FMM=F ISym2X=0 I1Cent= 0 IOpClX= 0 NMat=1 NMatS=1 NMatT=0.
 FoFJK:  IHMeth= 1 ICntrl=    2127 DoSepK=F KAlg= 0 I1Cent=   0 FoldK=F
 IRaf=         0 NMat=   1 IRICut=       1 DoRegI=T DoRafI=F ISym2E= 0.
 FoFCou: FMM=F IPFlag=           0 FMFlag=      100000 FMFlg1=         800
         NFxFlg=           0 DoJE=F BraDBF=F KetDBF=F FulRan=T
         wScrn=  0.000000 ICntrl=    2127 IOpCl=  0 I1Cent=           0 NGrid=           0
         NMat0=    1 NMatS0=      1 NMatT0=    0 NMatD0=    1 NMtDS0=    0 NMtDT0=    0
 Symmetry not used in FoFCou.
 Leave Link  703 at Mon May 16 17:42:08 2022, MaxMem=  2147483648 cpu:        19.0
 (Enter /gpfs/runtime/opt/gaussian/g09-D01/g09/l716.exe)
 Dipole        = 5.30510110D+00 1.00035417D+01 3.62199495D-01
 ***** Axes restored to original set *****
 -------------------------------------------------------------------
 Center     Atomic                   Forces (Hartrees/Bohr)
 Number     Number              X              Y              Z
 -------------------------------------------------------------------
      1        6           0.019808991    0.002970259   -0.003176327
      2        6          -0.021631177    0.003766614   -0.008432242
      3        6           0.004681582   -0.002487872    0.016723416
      4        1          -0.002689534    0.006128461   -0.001574157
      5        6          -0.005828133    0.006023493   -0.003074468
      6        8           0.018046267   -0.002365434   -0.004182090
      7        6          -0.025698252    0.015051772    0.003716897
      8        8           0.015375814   -0.008333759   -0.002373781
      9        8           0.005765980   -0.017411965   -0.001566774
     10        1           0.006167201   -0.000169920   -0.000268443
     11        1           0.005150844    0.001387870   -0.004692278
     12        1          -0.007518079   -0.001231478    0.005184939
     13        1          -0.005717890   -0.001956671    0.001241707
     14        1          -0.005732307   -0.001940094    0.002570578
     15        3          -0.000181308    0.000568722   -0.000096979
 -------------------------------------------------------------------
 Cartesian Forces:  Max     0.025698252 RMS     0.008887387
 Leave Link  716 at Mon May 16 17:42:08 2022, MaxMem=  2147483648 cpu:         0.1
 (Enter /gpfs/runtime/opt/gaussian/g09-D01/g09/l103.exe)

 GradGradGradGradGradGradGradGradGradGradGradGradGradGradGradGradGradGrad
 Berny optimization.
 FormGI is forming the generalized inverse of G from B-inverse, IUseBI=4.
 Internal  Forces:  Max     0.032306298 RMS     0.005637951
 Search for a local minimum.
 Step number   1 out of a maximum of   89
 All quantities printed in internal units (Hartrees-Bohrs-Radians)
 RMS Force = .56380D-02 SwitMx=.10000D-02 MixMth= 1
 Mixed Optimization -- RFO/linear search
 Second derivative matrix not updated -- first step.
 ITU=  0
     Eigenvalues ---    0.00329   0.00518   0.00674   0.00949   0.01714
     Eigenvalues ---    0.01716   0.02503   0.03279   0.03279   0.04397
     Eigenvalues ---    0.04486   0.05057   0.05802   0.06226   0.07766
     Eigenvalues ---    0.09029   0.10765   0.15169   0.16000   0.16000
     Eigenvalues ---    0.16000   0.18404   0.22000   0.23958   0.25000
     Eigenvalues ---    0.27465   0.31658   0.33579   0.34016   0.34807
     Eigenvalues ---    0.35298   0.35989   0.35994   0.36002   0.37033
     Eigenvalues ---    0.52215   0.56166   0.64487   0.97952
 RFO step:  Lambda=-8.68039142D-03 EMin= 3.29107057D-03
 Linear search not attempted -- first point.
 Iteration  1 RMS(Cart)=  0.07032401 RMS(Int)=  0.00173484
 Iteration  2 RMS(Cart)=  0.00195636 RMS(Int)=  0.00058812
 Iteration  3 RMS(Cart)=  0.00000189 RMS(Int)=  0.00058812
 Iteration  4 RMS(Cart)=  0.00000000 RMS(Int)=  0.00058812
 ITry= 1 IFail=0 DXMaxC= 3.71D-01 DCOld= 1.00D+10 DXMaxT= 3.00D-01 DXLimC= 3.00D+00 Rises=F
 Variable       Old X    -DE/DX   Delta X   Delta X   Delta X     New X
                                 (Linear)    (Quad)   (Total)
    R1        2.47557   0.03231   0.00000   0.04943   0.04943   2.52500
    R2        2.04091   0.00434   0.00000   0.01177   0.01177   2.05268
    R3        2.04078   0.00549   0.00000   0.01488   0.01488   2.05566
    R4        2.84773  -0.00445   0.00000  -0.01369  -0.01369   2.83405
    R5        2.04099   0.00646   0.00000   0.01753   0.01753   2.05851
    R6        2.05990   0.00038   0.00000   0.00106   0.00106   2.06096
    R7        2.91175   0.00378   0.00000   0.01434   0.01397   2.92573
    R8        2.75415  -0.00815   0.00000  -0.02025  -0.02022   2.73394
    R9        2.75416  -0.01172   0.00000  -0.03129  -0.03149   2.72266
   R10        2.05996  -0.00005   0.00000  -0.00024  -0.00008   2.05988
   R11        2.05970   0.00037   0.00000   0.00070   0.00085   2.06055
   R12        2.52699  -0.00119   0.00000  -0.00294  -0.00271   2.52429
   R13        2.29470  -0.01765   0.00000  -0.01786  -0.01786   2.27684
   R14        2.53254  -0.00157   0.00000  -0.00301  -0.00264   2.52990
   R15        6.05814  -0.00044   0.00000  -0.01831  -0.01834   6.03980
   R16        6.34546  -0.00021   0.00000  -0.01563  -0.01570   6.32976
    A1        2.09433   0.00272   0.00000   0.01610   0.01609   2.11042
    A2        2.09445   0.00314   0.00000   0.01862   0.01861   2.11306
    A3        2.09440  -0.00586   0.00000  -0.03474  -0.03475   2.05965
    A4        2.09438   0.00938   0.00000   0.04101   0.04085   2.13523
    A5        2.09445   0.00202   0.00000   0.01925   0.01907   2.11352
    A6        2.09435  -0.01140   0.00000  -0.06026  -0.06041   2.03394
    A7        1.92837  -0.00311   0.00000  -0.00190  -0.00427   1.92410
    A8        1.92932   0.00909   0.00000   0.06120   0.06069   1.99000
    A9        1.92939  -0.00036   0.00000  -0.00717  -0.00681   1.92259
   A10        1.92930   0.00172   0.00000   0.02730   0.02570   1.95500
   A11        1.92927  -0.00114   0.00000  -0.05257  -0.05224   1.87703
   A12        1.81553  -0.00620   0.00000  -0.02784  -0.02802   1.78751
   A13        1.81335   0.00099   0.00000   0.00655   0.00683   1.82019
   A14        1.92933   0.00205   0.00000   0.03376   0.03310   1.96243
   A15        1.92936   0.00195   0.00000   0.03734   0.03669   1.96606
   A16        1.92922  -0.00239   0.00000  -0.04336  -0.04371   1.88551
   A17        1.92940  -0.00261   0.00000  -0.04221  -0.04231   1.88708
   A18        1.93028   0.00005   0.00000   0.00756   0.00542   1.93571
   A19        1.90554   0.00549   0.00000   0.01950   0.01905   1.92458
   A20        2.14810   0.00460   0.00000   0.01822   0.01811   2.16621
   A21        1.98773  -0.00915   0.00000  -0.03622  -0.03600   1.95173
   A22        2.14735   0.00455   0.00000   0.01800   0.01789   2.16524
   A23        1.90262   0.00887   0.00000   0.03799   0.03803   1.94065
   A24        1.95953   0.00048   0.00000   0.00181   0.00261   1.96214
   A25        1.79836   0.00019   0.00000  -0.00010   0.00065   1.79901
   A26        0.55124   0.00008   0.00000   0.00307   0.00270   0.55395
    D1        3.14157   0.00154   0.00000   0.04365   0.04409  -3.09753
    D2        0.00000   0.00066   0.00000   0.00950   0.00905   0.00905
    D3       -0.00484   0.00127   0.00000   0.03713   0.03757   0.03272
    D4        3.13677   0.00039   0.00000   0.00297   0.00253   3.13930
    D5       -0.01224  -0.00368   0.00000  -0.05795  -0.05750  -0.06974
    D6        2.12900   0.00260   0.00000   0.01726   0.01768   2.14668
    D7       -2.15350   0.00015   0.00000   0.01494   0.01499  -2.13850
    D8        3.12933  -0.00279   0.00000  -0.02380  -0.02396   3.10537
    D9       -1.01261   0.00348   0.00000   0.05142   0.05122  -0.96140
   D10        0.98808   0.00103   0.00000   0.04909   0.04853   1.03661
   D11        2.07010  -0.00102   0.00000  -0.00546  -0.00591   2.06419
   D12       -2.14319  -0.00228   0.00000  -0.03624  -0.03738  -2.18057
   D13       -0.00002   0.00054   0.00000   0.02223   0.02211   0.02209
   D14       -2.07238   0.00244   0.00000   0.05278   0.05369  -2.01870
   D15       -0.00249   0.00119   0.00000   0.02200   0.02222   0.01973
   D16        2.14068   0.00400   0.00000   0.08047   0.08171   2.22239
   D17       -0.00122  -0.00155   0.00000  -0.01131  -0.01106  -0.01228
   D18        2.06868  -0.00281   0.00000  -0.04209  -0.04253   2.02615
   D19       -2.07134   0.00001   0.00000   0.01638   0.01696  -2.05437
   D20       -2.06910  -0.00501   0.00000  -0.04074  -0.04021  -2.10931
   D21        2.07336  -0.00004   0.00000   0.00260   0.00311   2.07646
   D22        0.00217   0.00200   0.00000   0.01195   0.01179   0.01395
   D23       -0.00011   0.00064   0.00000   0.00725   0.00731   0.00720
   D24       -2.07007  -0.00116   0.00000  -0.01497  -0.01382  -2.08389
   D25        2.06999   0.00221   0.00000   0.03422   0.03326   2.10325
   D26        2.43591   0.00126   0.00000   0.03526   0.03578   2.47170
   D27       -1.84933   0.00226   0.00000   0.03763   0.03686  -1.81247
   D28        0.29328  -0.00266   0.00000  -0.04061  -0.04053   0.25275
   D29       -2.40788  -0.00153   0.00000  -0.03689  -0.03750  -2.44538
   D30        1.87723  -0.00235   0.00000  -0.04202  -0.04140   1.83584
   D31       -0.26527   0.00245   0.00000   0.03690   0.03684  -0.22842
   D32       -3.14092  -0.00040   0.00000   0.00047   0.00042  -3.14051
   D33        0.00159   0.00065   0.00000   0.00014  -0.00010   0.00149
   D34       -0.00245  -0.00175   0.00000  -0.00815  -0.00803  -0.01048
   D35        3.14007  -0.00070   0.00000  -0.00849  -0.00855   3.13152
   D36       -0.16851   0.00149   0.00000   0.02373   0.02344  -0.14507
   D37        0.16001  -0.00147   0.00000  -0.02271  -0.02243   0.13758
         Item               Value     Threshold  Converged?
 Maximum Force            0.032306     0.000450     NO 
 RMS     Force            0.005638     0.000300     NO 
 Maximum Displacement     0.371234     0.001800     NO 
 RMS     Displacement     0.069881     0.001200     NO 
 Predicted change in Energy=-4.672198D-03
 Lowest energy point so far.  Saving SCF results.
 GradGradGradGradGradGradGradGradGradGradGradGradGradGradGradGradGradGrad

 Leave Link  103 at Mon May 16 17:42:08 2022, MaxMem=  2147483648 cpu:         0.4
 (Enter /gpfs/runtime/opt/gaussian/g09-D01/g09/l202.exe)
                          Input orientation:                          
 ---------------------------------------------------------------------
 Center     Atomic      Atomic             Coordinates (Angstroms)
 Number     Number       Type             X           Y           Z
 ---------------------------------------------------------------------
      1          6           0        3.162422    0.490699    0.056079
      2          6           0        1.917469    0.257644    0.481684
      3          6           0        0.806779   -0.117056   -0.453785
      4          1           0        1.158451   -0.093123   -1.485867
      5          6           0        0.116356   -1.458705   -0.106933
      6          8           0       -1.250021   -1.094539    0.169145
      7          6           0       -1.417029    0.222423    0.020591
      8          8           0       -2.463670    0.794351    0.191217
      9          8           0       -0.280633    0.830553   -0.341457
     10          1           0        3.958452    0.720839    0.758408
     11          1           0        3.411746    0.445553   -1.001809
     12          1           0        1.667780    0.300658    1.541126
     13          1           0        0.117032   -2.155826   -0.944916
     14          1           0        0.530415   -1.925046    0.787522
     15          3           0        0.606351   -5.175323   -0.018404
 ---------------------------------------------------------------------
                    Distance matrix (angstroms):
                    1          2          3          4          5
     1  C    0.000000
     2  C    1.336174   0.000000
     3  C    2.485635   1.499712   0.000000
     4  H    2.595062   2.137851   1.090614   0.000000
     5  C    3.620120   2.556626   1.548229   2.202779   0.000000
     6  O    4.689927   3.458190   2.360920   3.089116   1.440772
     7  C    4.587440   3.366412   2.299044   3.000347   2.278974
     8  O    5.635900   4.423438   3.455796   4.089007   3.438268
     9  O    3.482551   2.416080   1.446737   2.057624   2.335231
    10  H    1.086229   2.111098   3.479155   3.679580   4.501214
    11  H    1.087809   2.113983   2.720793   2.366817   3.909808
    12  H    2.115522   1.089317   2.212573   3.094700   2.866771
    13  H    4.156981   3.331907   2.207610   2.373168   1.090043
    14  H    3.646682   2.604149   2.210440   2.986414   1.090398
    15  Li   6.216338   5.611261   5.080924   5.318554   3.749824
                    6          7          8          9         10
     6  O    0.000000
     7  C    1.335795   0.000000
     8  O    2.245292   1.204853   0.000000
     9  O    2.215041   1.338767   2.247376   0.000000
    10  H    5.547163   5.448724   6.447539   4.380820   0.000000
    11  H    5.047286   4.940867   6.005455   3.770671   1.863607
    12  H    3.513186   3.440087   4.374342   2.760656   2.456904
    13  H    2.058226   2.990254   4.080976   3.072582   5.092447
    14  H    2.059633   2.998724   4.088428   3.086376   4.330472
    15  Li   4.487103   5.764655   6.716098   6.079610   6.826767
                   11         12         13         14         15
    11  H    0.000000
    12  H    3.086896   0.000000
    13  H    4.198280   3.823551   0.000000
    14  H    4.138056   2.610608   1.795964   0.000000
    15  Li   6.358582   5.791816   3.196125   3.349565   0.000000
 Stoichiometry    C5H6LiO3(1+)
 Framework group  C1[X(C5H6LiO3)]
 Deg. of freedom    39
 Full point group                 C1      NOp   1
 RotChk:  IX=0 Diff= 1.46D-01
 Largest Abelian subgroup         C1      NOp   1
 Largest concise Abelian subgroup C1      NOp   1
                         Standard orientation:                         
 ---------------------------------------------------------------------
 Center     Atomic      Atomic             Coordinates (Angstroms)
 Number     Number       Type             X           Y           Z
 ---------------------------------------------------------------------
      1          6           0        3.016403   -0.829660   -0.048721
      2          6           0        1.776653   -0.576819   -0.478198
      3          6           0        0.672483   -0.171145    0.452057
      4          1           0        1.022557   -0.191413    1.484761
      5          6           0        0.008607    1.180059    0.090772
      6          8           0       -1.364299    0.839698   -0.183281
      7          6           0       -1.557008   -0.472196   -0.021590
      8          8           0       -2.614382   -1.025404   -0.187696
      9          8           0       -0.433012   -1.098561    0.348003
     10          1           0        3.808539   -1.082331   -0.747699
     11          1           0        3.265464   -0.778616    1.008961
     12          1           0        1.527271   -0.625740   -1.537456
     13          1           0        0.021956    1.885514    0.921644
     14          1           0        0.432570    1.629163   -0.807854
     15          3           0        0.570786    4.885375   -0.034828
 ---------------------------------------------------------------------
 Rotational constants (GHZ):      1.8701916      1.3611142      0.8293341
 Leave Link  202 at Mon May 16 17:42:08 2022, MaxMem=  2147483648 cpu:         0.4
 (Enter /gpfs/runtime/opt/gaussian/g09-D01/g09/l301.exe)
 Standard basis: 6-31+G(d,p) (6D, 7F)
 Ernie: Thresh=  0.10000D-02 Tol=  0.10000D-05 Strict=F.
 There are   201 symmetry adapted cartesian basis functions of A   symmetry.
 There are   201 symmetry adapted basis functions of A   symmetry.
   201 basis functions,   330 primitive gaussians,   201 cartesian basis functions
    31 alpha electrons       31 beta electrons
       nuclear repulsion energy       390.3020437701 Hartrees.
 IExCor= 4336 DFT=T Ex+Corr=M062X ExCW=0 ScaHFX=  0.540000
 ScaDFX=  1.000000  1.000000  1.000000  1.000000 ScalE2=  1.000000  1.000000
 IRadAn=      0 IRanWt=     -1 IRanGd=            0 ICorTp=0 IEmpDi=131
 NAtoms=   15 NActive=   15 NUniq=   15 SFac= 1.00D+00 NAtFMM=   60 NAOKFM=F Big=F
 Integral buffers will be    131072 words long.
 Raffenetti 2 integral format.
 Two-electron integral symmetry is turned on.
 R6Disp:  Grimme-D3 Dispersion energy=       -0.0005261804 Hartrees.
 Nuclear repulsion after empirical dispersion term =      390.3015175897 Hartrees.
 ------------------------------------------------------------------------------
 Polarizable Continuum Model (PCM)
 =================================
 Model                : PCM (using non-symmetric T matrix).
 Atomic radii         : SMD-Coulomb.
 Polarization charges : Total charges.
 Charge compensation  : None.
 Solution method      : On-the-fly selection.
 Cavity type          : VdW (van der Waals Surface) (Alpha=1.000).
 Cavity algorithm     : GePol (No added spheres)
                        Default sphere list used, NSphG=   15.
                        Lebedev-Laikov grids with approx.  5.0 points / Ang**2.
                        Smoothing algorithm: Karplus/York (Gamma=1.0000).
                        Polarization charges: spherical gaussians, with
                                              point-specific exponents (IZeta= 3).
                        Self-potential: point-specific (ISelfS= 7).
                        Self-field    : sphere-specific E.n sum rule (ISelfD= 2).
 1st derivatives      : Analytical E(r).r(x)/FMM algorithm (CHGder, D1EAlg=3).
                        Cavity 1st derivative terms included.
 Solvent              : DiMethylSulfoxide, Eps=  46.826000 Eps(inf)=   2.007889
 ------------------------------------------------------------------------------
 Spheres list:
 ISph  on   Nord     Re0    Alpha      Xe            Ye            Ze
    1   C      1    1.8500  1.000      3.016403     -0.829660     -0.048721
    2   C      2    1.8500  1.000      1.776653     -0.576819     -0.478198
    3   C      3    1.8500  1.000      0.672483     -0.171145      0.452057
    4   H      4    1.2000  1.000      1.022557     -0.191413      1.484761
    5   C      5    1.8500  1.000      0.008607      1.180059      0.090772
    6   O      6    2.2940  1.000     -1.364299      0.839698     -0.183281
    7   C      7    1.8500  1.000     -1.557008     -0.472196     -0.021590
    8   O      8    2.2940  1.000     -2.614382     -1.025404     -0.187696
    9   O      9    2.2940  1.000     -0.433012     -1.098561      0.348003
   10   H     10    1.2000  1.000      3.808539     -1.082331     -0.747699
   11   H     11    1.2000  1.000      3.265464     -0.778616      1.008961
   12   H     12    1.2000  1.000      1.527271     -0.625740     -1.537456
   13   H     13    1.2000  1.000      0.021956      1.885514      0.921644
   14   H     14    1.2000  1.000      0.432570      1.629163     -0.807854
   15  Li     15    1.8200  1.000      0.570786      4.885375     -0.034828
 ------------------------------------------------------------------------------
 Separa: There are  2 disjoint cavities,
 GePol: Number of generator spheres                  =      15
 GePol: Total number of spheres                      =      15
 GePol: Number of exposed spheres                    =      15 (100.00%)
 GePol: Number of points                             =    1644
 GePol: Average weight of points                     =       0.13
 GePol: Minimum weight of points                     =   0.46D-07
 GePol: Maximum weight of points                     =    0.17992
 GePol: Number of points with low weight             =      62
 GePol: Fraction of low-weight points (<1% of avg)   =       3.77%
 ------------------------------------------------------------------------------
 Atomic radii for non-electrostatic terms: SMD-CDS.
 ------------------------------------------------------------------------------
 PCM non-electrostatic energy =         0.0010126083 Hartrees.
 Nuclear repulsion after PCM non-electrostatic terms =      390.3025301980 Hartrees.
 Leave Link  301 at Mon May 16 17:42:08 2022, MaxMem=  2147483648 cpu:         0.4
 (Enter /gpfs/runtime/opt/gaussian/g09-D01/g09/l302.exe)
 NPDir=0 NMtPBC=     1 NCelOv=     1 NCel=       1 NClECP=     1 NCelD=      1
         NCelK=      1 NCelE2=     1 NClLst=     1 CellRange=     0.0.
 One-electron integrals computed using PRISM.
 NBasis=   201 RedAO= T EigKep=  2.24D-05  NBF=   201
 NBsUse=   201 1.00D-06 EigRej= -1.00D+00 NBFU=   201
 Precomputing XC quadrature grid using
 IXCGrd= 4 IRadAn=           0 IRanWt=          -1 IRanGd=           0 AccXCQ= 0.00D+00.
 Generated NRdTot=       0 NPtTot=           0 NUsed=           0 NTot=          32
 NSgBfM=   201   201   201   201   201 MxSgAt=    15 MxSgA2=    15.
 Leave Link  302 at Mon May 16 17:42:09 2022, MaxMem=  2147483648 cpu:         4.0
 (Enter /gpfs/runtime/opt/gaussian/g09-D01/g09/l303.exe)
 DipDrv:  MaxL=1.
 Leave Link  303 at Mon May 16 17:42:09 2022, MaxMem=  2147483648 cpu:         0.5
 (Enter /gpfs/runtime/opt/gaussian/g09-D01/g09/l401.exe)
 Initial guess from the checkpoint file:  "/gpfs/data/yqi27/cgu13/CHEM1560Q/Gaussian/4427-96-7/inp5/Gau-125532.chk"
 B after Tr=     0.000000    0.000000    0.000000
         Rot=    0.998721    0.001148   -0.000413   -0.050545 Ang=   5.80 deg.
 Guess basis will be translated and rotated to current coordinates.
 JPrj=2 DoOrth=T DoCkMO=T.
 Generating alternative initial guess.
 ExpMin= 7.40D-03 ExpMax= 5.48D+03 ExpMxC= 8.25D+02 IAcc=3 IRadAn=         5 AccDes= 0.00D+00
 Harris functional with IExCor= 1009 and IRadAn=       5 diagonalized for initial guess.
 HarFok:  IExCor= 1009 AccDes= 0.00D+00 IRadAn=         5 IDoV= 1 UseB2=F ITyADJ=14
 ICtDFT=  3500011 ScaDFX=  1.000000  1.000000  1.000000  1.000000
 FoFCou: FMM=F IPFlag=           0 FMFlag=      100000 FMFlg1=           0
         NFxFlg=           0 DoJE=T BraDBF=F KetDBF=T FulRan=T
         wScrn=  0.000000 ICntrl=     500 IOpCl=  0 I1Cent=   200000004 NGrid=           0
         NMat0=    1 NMatS0=      1 NMatT0=    0 NMatD0=    1 NMtDS0=    0 NMtDT0=    0
 Petite list used in FoFCou.
 Harris En= -426.788078620309    
 Leave Link  401 at Mon May 16 17:42:11 2022, MaxMem=  2147483648 cpu:        11.4
 (Enter /gpfs/runtime/opt/gaussian/g09-D01/g09/l502.exe)
 Closed shell SCF:
 Using DIIS extrapolation, IDIIS=  1040.
 Integral symmetry usage will be decided dynamically.
 Keep R1 ints in memory in canonical form, NReq=212247362.
 IVT=      142861 IEndB=      142861 NGot=  2147483648 MDV=  1941265337
 LenX=  1941265337 LenY=  1941224495
 Requested convergence on RMS density matrix=1.00D-08 within 128 cycles.
 Requested convergence on MAX density matrix=1.00D-06.
 Requested convergence on             energy=1.00D-06.
 No special actions if energy rises.
 FoFCou: FMM=F IPFlag=           0 FMFlag=           0 FMFlg1=           0
         NFxFlg=           0 DoJE=F BraDBF=F KetDBF=F FulRan=T
         wScrn=  0.000000 ICntrl=     600 IOpCl=  0 I1Cent=           0 NGrid=           0
         NMat0=    1 NMatS0=  20301 NMatT0=    0 NMatD0=    1 NMtDS0=    0 NMtDT0=    0
 Symmetry not used in FoFCou.

 Cycle   1  Pass 1  IDiag  1:
 PCMQM: There is more than one cavity, setting IComp=0.
 Inv3:  Mode=1 IEnd=     8108208.
 Iteration    1 A*A^-1 deviation from unit magnitude is 7.55D-15 for    874.
 Iteration    1 A*A^-1 deviation from orthogonality  is 4.96D-15 for   1505   1288.
 Iteration    1 A^-1*A deviation from unit magnitude is 6.44D-15 for    371.
 Iteration    1 A^-1*A deviation from orthogonality  is 1.65D-13 for    931    828.
 E= -427.080491700626    
 DIIS: error= 1.78D-03 at cycle   1 NSaved=   1.
 NSaved= 1 IEnMin= 1 EnMin= -427.080491700626     IErMin= 1 ErrMin= 1.78D-03
 ErrMax= 1.78D-03  0.00D+00 EMaxC= 1.00D-01 BMatC= 1.71D-03 BMatP= 1.71D-03
 IDIUse=3 WtCom= 9.82D-01 WtEn= 1.78D-02
 Coeff-Com:  0.100D+01
 Coeff-En:   0.100D+01
 Coeff:      0.100D+01
 Gap=     0.647 Goal=   None    Shift=    0.000
 GapD=    0.647 DampG=2.000 DampE=1.000 DampFc=2.0000 IDamp=-1.
 RMSDP=9.57D-04 MaxDP=3.55D-02              OVMax= 1.24D-02

 Cycle   2  Pass 1  IDiag  1:
 PCMQM: There is more than one cavity, setting IComp=0.
 E= -427.083219667871     Delta-E=       -0.002727967244 Rises=F Damp=F
 DIIS: error= 4.98D-04 at cycle   2 NSaved=   2.
 NSaved= 2 IEnMin= 2 EnMin= -427.083219667871     IErMin= 2 ErrMin= 4.98D-04
 ErrMax= 4.98D-04  0.00D+00 EMaxC= 1.00D-01 BMatC= 1.20D-04 BMatP= 1.71D-03
 IDIUse=3 WtCom= 9.95D-01 WtEn= 4.98D-03
 Coeff-Com:  0.149D-02 0.999D+00
 Coeff-En:   0.000D+00 0.100D+01
 Coeff:      0.148D-02 0.999D+00
 Gap=     0.320 Goal=   None    Shift=    0.000
 RMSDP=1.62D-04 MaxDP=4.77D-03 DE=-2.73D-03 OVMax= 4.24D-03

 Cycle   3  Pass 1  IDiag  1:
 PCMQM: There is more than one cavity, setting IComp=0.
 E= -427.083335412704     Delta-E=       -0.000115744833 Rises=F Damp=F
 DIIS: error= 5.76D-04 at cycle   3 NSaved=   3.
 NSaved= 3 IEnMin= 3 EnMin= -427.083335412704     IErMin= 2 ErrMin= 4.98D-04
 ErrMax= 5.76D-04  0.00D+00 EMaxC= 1.00D-01 BMatC= 8.71D-05 BMatP= 1.20D-04
 IDIUse=3 WtCom= 9.94D-01 WtEn= 5.76D-03
 Coeff-Com: -0.655D-01 0.481D+00 0.584D+00
 Coeff-En:   0.000D+00 0.000D+00 0.100D+01
 Coeff:     -0.651D-01 0.478D+00 0.587D+00
 Gap=     0.318 Goal=   None    Shift=    0.000
 RMSDP=6.01D-05 MaxDP=1.94D-03 DE=-1.16D-04 OVMax= 2.30D-03

 Cycle   4  Pass 1  IDiag  1:
 PCMQM: There is more than one cavity, setting IComp=0.
 E= -427.083404648237     Delta-E=       -0.000069235533 Rises=F Damp=F
 DIIS: error= 1.75D-04 at cycle   4 NSaved=   4.
 NSaved= 4 IEnMin= 4 EnMin= -427.083404648237     IErMin= 4 ErrMin= 1.75D-04
 ErrMax= 1.75D-04  0.00D+00 EMaxC= 1.00D-01 BMatC= 7.35D-06 BMatP= 8.71D-05
 IDIUse=3 WtCom= 9.98D-01 WtEn= 1.75D-03
 Coeff-Com: -0.274D-01 0.101D+00 0.260D+00 0.667D+00
 Coeff-En:   0.000D+00 0.000D+00 0.000D+00 0.100D+01
 Coeff:     -0.274D-01 0.101D+00 0.259D+00 0.667D+00
 Gap=     0.318 Goal=   None    Shift=    0.000
 RMSDP=2.19D-05 MaxDP=7.17D-04 DE=-6.92D-05 OVMax= 7.42D-04

 Cycle   5  Pass 1  IDiag  1:
 PCMQM: There is more than one cavity, setting IComp=0.
 E= -427.083410620096     Delta-E=       -0.000005971859 Rises=F Damp=F
 DIIS: error= 3.51D-05 at cycle   5 NSaved=   5.
 NSaved= 5 IEnMin= 5 EnMin= -427.083410620096     IErMin= 5 ErrMin= 3.51D-05
 ErrMax= 3.51D-05  0.00D+00 EMaxC= 1.00D-01 BMatC= 7.77D-07 BMatP= 7.35D-06
 IDIUse=1 WtCom= 1.00D+00 WtEn= 0.00D+00
 Coeff-Com: -0.211D-02-0.259D-01 0.253D-01 0.275D+00 0.727D+00
 Coeff:     -0.211D-02-0.259D-01 0.253D-01 0.275D+00 0.727D+00
 Gap=     0.318 Goal=   None    Shift=    0.000
 RMSDP=9.09D-06 MaxDP=4.57D-04 DE=-5.97D-06 OVMax= 2.71D-04

 Cycle   6  Pass 1  IDiag  1:
 PCMQM: There is more than one cavity, setting IComp=0.
 E= -427.083411497369     Delta-E=       -0.000000877272 Rises=F Damp=F
 DIIS: error= 9.69D-06 at cycle   6 NSaved=   6.
 NSaved= 6 IEnMin= 6 EnMin= -427.083411497369     IErMin= 6 ErrMin= 9.69D-06
 ErrMax= 9.69D-06  0.00D+00 EMaxC= 1.00D-01 BMatC= 5.48D-08 BMatP= 7.77D-07
 IDIUse=1 WtCom= 1.00D+00 WtEn= 0.00D+00
 Coeff-Com:  0.205D-02-0.190D-01-0.187D-01 0.228D-01 0.234D+00 0.779D+00
 Coeff:      0.205D-02-0.190D-01-0.187D-01 0.228D-01 0.234D+00 0.779D+00
 Gap=     0.318 Goal=   None    Shift=    0.000
 RMSDP=2.59D-06 MaxDP=9.92D-05 DE=-8.77D-07 OVMax= 9.56D-05

 Cycle   7  Pass 1  IDiag  1:
 PCMQM: There is more than one cavity, setting IComp=0.
 E= -427.083411560308     Delta-E=       -0.000000062940 Rises=F Damp=F
 DIIS: error= 4.65D-06 at cycle   7 NSaved=   7.
 NSaved= 7 IEnMin= 7 EnMin= -427.083411560308     IErMin= 7 ErrMin= 4.65D-06
 ErrMax= 4.65D-06  0.00D+00 EMaxC= 1.00D-01 BMatC= 1.24D-08 BMatP= 5.48D-08
 IDIUse=1 WtCom= 1.00D+00 WtEn= 0.00D+00
 Coeff-Com:  0.115D-02-0.626D-02-0.118D-01-0.178D-01 0.378D-01 0.382D+00
 Coeff-Com:  0.615D+00
 Coeff:      0.115D-02-0.626D-02-0.118D-01-0.178D-01 0.378D-01 0.382D+00
 Coeff:      0.615D+00
 Gap=     0.318 Goal=   None    Shift=    0.000
 RMSDP=8.14D-07 MaxDP=3.02D-05 DE=-6.29D-08 OVMax= 3.03D-05

 Cycle   8  Pass 1  IDiag  1:
 PCMQM: There is more than one cavity, setting IComp=0.
 E= -427.083411572853     Delta-E=       -0.000000012544 Rises=F Damp=F
 DIIS: error= 8.37D-07 at cycle   8 NSaved=   8.
 NSaved= 8 IEnMin= 8 EnMin= -427.083411572853     IErMin= 8 ErrMin= 8.37D-07
 ErrMax= 8.37D-07  0.00D+00 EMaxC= 1.00D-01 BMatC= 4.33D-10 BMatP= 1.24D-08
 IDIUse=1 WtCom= 1.00D+00 WtEn= 0.00D+00
 Coeff-Com:  0.438D-05 0.103D-02-0.367D-03-0.691D-02-0.196D-01-0.116D-01
 Coeff-Com:  0.125D+00 0.913D+00
 Coeff:      0.438D-05 0.103D-02-0.367D-03-0.691D-02-0.196D-01-0.116D-01
 Coeff:      0.125D+00 0.913D+00
 Gap=     0.318 Goal=   None    Shift=    0.000
 RMSDP=2.67D-07 MaxDP=5.65D-06 DE=-1.25D-08 OVMax= 9.99D-06

 Cycle   9  Pass 1  IDiag  1:
 PCMQM: There is more than one cavity, setting IComp=0.
 E= -427.083411573499     Delta-E=       -0.000000000647 Rises=F Damp=F
 DIIS: error= 3.97D-07 at cycle   9 NSaved=   9.
 NSaved= 9 IEnMin= 9 EnMin= -427.083411573499     IErMin= 9 ErrMin= 3.97D-07
 ErrMax= 3.97D-07  0.00D+00 EMaxC= 1.00D-01 BMatC= 1.19D-10 BMatP= 4.33D-10
 IDIUse=1 WtCom= 1.00D+00 WtEn= 0.00D+00
 Coeff-Com: -0.930D-04 0.103D-02 0.803D-03-0.198D-02-0.126D-01-0.370D-01
 Coeff-Com:  0.104D-01 0.436D+00 0.603D+00
 Coeff:     -0.930D-04 0.103D-02 0.803D-03-0.198D-02-0.126D-01-0.370D-01
 Coeff:      0.104D-01 0.436D+00 0.603D+00
 Gap=     0.318 Goal=   None    Shift=    0.000
 RMSDP=1.01D-07 MaxDP=2.81D-06 DE=-6.47D-10 OVMax= 2.90D-06

 Cycle  10  Pass 1  IDiag  1:
 PCMQM: There is more than one cavity, setting IComp=0.
 E= -427.083411573607     Delta-E=       -0.000000000108 Rises=F Damp=F
 DIIS: error= 1.15D-07 at cycle  10 NSaved=  10.
 NSaved=10 IEnMin=10 EnMin= -427.083411573607     IErMin=10 ErrMin= 1.15D-07
 ErrMax= 1.15D-07  0.00D+00 EMaxC= 1.00D-01 BMatC= 7.34D-12 BMatP= 1.19D-10
 IDIUse=1 WtCom= 1.00D+00 WtEn= 0.00D+00
 Coeff-Com: -0.284D-04 0.167D-03 0.293D-03 0.337D-03-0.108D-02-0.917D-02
 Coeff-Com: -0.132D-01 0.260D-02 0.180D+00 0.840D+00
 Coeff:     -0.284D-04 0.167D-03 0.293D-03 0.337D-03-0.108D-02-0.917D-02
 Coeff:     -0.132D-01 0.260D-02 0.180D+00 0.840D+00
 Gap=     0.318 Goal=   None    Shift=    0.000
 RMSDP=3.39D-08 MaxDP=1.29D-06 DE=-1.08D-10 OVMax= 1.55D-06

 Cycle  11  Pass 1  IDiag  1:
 PCMQM: There is more than one cavity, setting IComp=0.
 E= -427.083411573622     Delta-E=       -0.000000000015 Rises=F Damp=F
 DIIS: error= 4.34D-08 at cycle  11 NSaved=  11.
[...]
   A14        1.97208  -0.00002   0.00000  -0.00109  -0.00113   1.97095
   A15        1.95634   0.00002   0.00000   0.00084   0.00087   1.95721
   A16        1.90122  -0.00001   0.00000  -0.00009  -0.00005   1.90117
   A17        1.89389   0.00001   0.00000   0.00069   0.00067   1.89456
   A18        1.93670  -0.00001   0.00000  -0.00037  -0.00037   1.93633
   A19        1.90253  -0.00002   0.00000   0.00013   0.00013   1.90266
   A20        2.17087   0.00000   0.00000  -0.00012  -0.00011   2.17075
   A21        1.94036   0.00002   0.00000   0.00013   0.00012   1.94048
   A22        2.17196  -0.00002   0.00000  -0.00001  -0.00001   2.17195
   A23        1.91252  -0.00002   0.00000  -0.00012  -0.00012   1.91240
   A24        1.96356   0.00003   0.00000   0.01928   0.01931   1.98286
   A25        1.74249  -0.00002   0.00000  -0.01215  -0.01221   1.73027
   A26        0.57816   0.00000   0.00000  -0.00162  -0.00170   0.57646
    D1       -3.10438   0.00000   0.00000   0.00068   0.00068  -3.10370
    D2        0.00401   0.00000   0.00000  -0.00020  -0.00020   0.00381
    D3        0.03110  -0.00001   0.00000   0.00052   0.00052   0.03162
    D4        3.13949  -0.00001   0.00000  -0.00036  -0.00036   3.13913
    D5       -0.10956   0.00000   0.00000  -0.00318  -0.00318  -0.11273
    D6        2.11623  -0.00001   0.00000  -0.00401  -0.00401   2.11223
    D7       -2.18942   0.00000   0.00000  -0.00353  -0.00354  -2.19295
    D8        3.06354   0.00000   0.00000  -0.00235  -0.00235   3.06119
    D9       -0.99386  -0.00001   0.00000  -0.00318  -0.00318  -0.99703
   D10        0.98368   0.00000   0.00000  -0.00271  -0.00271   0.98097
   D11        2.48350   0.00002   0.00000  -0.00043  -0.00044   2.48307
   D12       -1.75204   0.00000   0.00000  -0.00099  -0.00097  -1.75302
   D13        0.45187  -0.00001   0.00000  -0.00169  -0.00168   0.45019
   D14       -1.57670   0.00001   0.00000  -0.00108  -0.00109  -1.57779
   D15        0.47094   0.00000   0.00000  -0.00164  -0.00163   0.46931
   D16        2.67486  -0.00002   0.00000  -0.00235  -0.00234   2.67252
   D17        0.41484   0.00001   0.00000  -0.00096  -0.00096   0.41388
   D18        2.46247   0.00000   0.00000  -0.00152  -0.00150   2.46098
   D19       -1.61679  -0.00002   0.00000  -0.00222  -0.00221  -1.61900
   D20       -2.47175   0.00000   0.00000   0.00033   0.00033  -2.47141
   D21        1.69232   0.00000   0.00000   0.00013   0.00013   1.69246
   D22       -0.35154   0.00000   0.00000   0.00043   0.00043  -0.35110
   D23       -0.35953  -0.00001   0.00000   0.00130   0.00130  -0.35823
   D24       -2.45668   0.00001   0.00000   0.00255   0.00257  -2.45410
   D25        1.71617   0.00002   0.00000   0.00263   0.00266   1.71883
   D26        2.56918  -0.00001   0.00000  -0.01115  -0.01123   2.55794
   D27       -1.72908  -0.00001   0.00000  -0.01167  -0.01177  -1.74084
   D28        0.35482  -0.00001   0.00000  -0.01110  -0.01120   0.34362
   D29       -2.53274   0.00003   0.00000   0.01691   0.01681  -2.51593
   D30        1.77853   0.00000   0.00000   0.01592   0.01582   1.79435
   D31       -0.30975   0.00001   0.00000   0.01581   0.01569  -0.29407
   D32       -2.99175   0.00001   0.00000  -0.00089  -0.00089  -2.99264
   D33        0.15057   0.00001   0.00000  -0.00108  -0.00107   0.14950
   D34        0.14551   0.00000   0.00000   0.00038   0.00037   0.14588
   D35       -2.99535   0.00000   0.00000   0.00019   0.00019  -2.99516
   D36       -0.20184   0.00000   0.00000   0.00669   0.00671  -0.19513
   D37        0.18824  -0.00001   0.00000  -0.00815  -0.00812   0.18012
         Item               Value     Threshold  Converged?
 Maximum Force            0.000038     0.000450     YES
 RMS     Force            0.000013     0.000300     YES
 Maximum Displacement     0.063662     0.001800     NO 
 RMS     Displacement     0.012071     0.001200     NO 
 Predicted change in Energy=-6.235412D-06
 GradGradGradGradGradGradGradGradGradGradGradGradGradGradGradGradGradGrad

 Leave Link  103 at Mon May 16 17:53:23 2022, MaxMem=  2147483648 cpu:         2.1
 (Enter /gpfs/runtime/opt/gaussian/g09-D01/g09/l9999.exe)
 1\1\GINC-NODE1319\Freq\RM062X\6-31+G(d,p)\C5H6Li1O3(1+)\ROOT\16-May-20
 22\0\\#P Geom=AllCheck Guess=TCheck SCRF=Check GenChk RM062X/6-31+G(d,
 p) Freq\\4427-96-7\\1,1\C,3.1842496167,0.4581273452,-0.0126266235\C,1.
 9854234469,0.1866701162,0.498995655\C,0.7882211923,-0.0679708609,-0.35
 42508915\H,1.0099900176,0.1080756054,-1.4113183128\C,0.1358334977,-1.4
 361716248,-0.1364792162\O,-1.2683210583,-1.1452112655,-0.2522402168\C,
 -1.4615880445,0.1666515226,-0.0437092389\O,-2.5393415368,0.6835119026,
 0.0704904392\O,-0.2938462529,0.8245692651,0.0194888127\H,4.0492769934,
 0.6064591477,0.6269601544\H,3.3354317499,0.5341569043,-1.0873143492\H,
 1.8307013439,0.1078623255,1.574705786\H,0.4099234485,-2.1645004765,-0.
 8989255236\H,0.3277916455,-1.8286121565,0.8668986834\Li,0.5481539401,-
 4.9905177503,0.1919248419\\Version=EM64L-G09RevD.01\State=1-A\HF=-427.
 0849163\RMSD=2.348e-09\RMSF=1.916e-05\ZeroPoint=0.1100306\Thermal=0.11
 826\Dipole=3.5548273,-10.0484905,0.1265806\DipoleDeriv=-0.1066684,0.05
 11339,0.0043081,0.0811343,-0.3441452,-0.0200043,0.0086862,-0.0274854,0
 .0666341,-0.0058784,0.0941499,0.0409923,0.0424135,-0.3235497,-0.019310
 3,-0.0492194,-0.016998,0.090488,1.1168763,-0.0443691,-0.1143732,-0.547
 8165,0.4855742,0.0624193,0.011616,0.0856793,0.395227,-0.0148623,0.0031
 825,0.0109693,0.0274208,0.0370604,0.0592398,0.034467,0.0116788,-0.0823
 548,0.781145,-0.3747137,0.0479579,0.0257674,0.3547046,-0.0568496,0.003
 7333,-0.0069587,0.4136435,-1.2409358,0.3213548,-0.0100192,0.4826528,-1
 .4833874,-0.0879357,0.0652587,-0.1474591,-0.3984373,3.2703617,-0.42624
 9,-0.20769,-0.3797646,2.2609573,0.1554398,-0.1894684,0.2396117,0.56459
 52,-1.8763797,0.4901461,0.1252633,0.5246094,-0.90708,-0.0543227,0.1384
 122,-0.0656327,-0.5070828,-2.123347,-0.0738003,0.1429798,-0.1722643,-0
 .7863579,-0.0516705,0.0338213,-0.0867171,-0.4101189,0.0050259,-0.04117
 96,-0.0485464,-0.033002,0.1938849,-0.0014156,-0.0742833,-0.0067551,0.0
 307472,0.0892236,-0.0245674,-0.0244275,-0.0299831,0.2049765,0.0057639,
 0.0214448,0.0167831,-0.0575416,0.0450193,-0.0424261,0.0279565,-0.07838
 65,0.1927252,0.0176471,0.0005811,0.012164,-0.0559406,0.0576828,0.02890
 53,-0.0137215,0.0373171,0.015181,-0.037866,0.0271148,-0.1010859,0.0305
 477,0.0068661,0.0436508,0.0175505,0.0216496,0.0540677,0.0311635,-0.033
 0027,0.0990716,-0.0748957,0.9958706,-0.005218,0.0008,-0.0017478,1.0453
 885,-0.0022986,0.0008384,-0.0058965,0.9944891\Polar=112.201085,0.02712
 7,73.3381232,-7.255804,-0.7217803,70.5187177\PG=C01 [X(C5H6Li1O3)]\NIm
 ag=1\\0.82610227,0.14821028,0.14754752,-0.07021725,-0.03834111,0.68631
 648,-0.49652658,-0.09688503,0.16793244,0.79374827,-0.09793030,-0.07214
 301,0.04049351,0.14325991,0.18558131,0.16657893,0.03987946,-0.18839888
 ,-0.12703105,-0.04334789,0.68349396,-0.02786128,-0.00798430,-0.0129910
 2,-0.16916387,-0.03387751,-0.08270339,0.53916830,-0.00912651,0.0045249
 1,-0.00564271,-0.02413739,-0.08107533,-0.01606279,0.06816718,0.4283523
 1,0.00954290,0.00151185,0.01096219,-0.07489473,-0.01786901,-0.16177869
 ,0.00175680,-0.03426748,0.64202270,0.00071850,0.00036648,-0.00155650,0
 .00564745,0.00346844,-0.02645992,-0.06053396,-0.01203125,0.04368910,0.
 07429717,0.00076130,-0.00035087,-0.00057970,-0.00118810,0.00296639,-0.
 00681114,-0.01451251,-0.05870610,0.05099235,0.00700483,0.06547127,0.00
 138989,-0.00005932,0.00145524,0.00240503,0.00387123,-0.01799537,0.0468
 2730,0.04670159,-0.30709640,-0.05486760,-0.04628832,0.32568679,-0.0001
 6148,-0.00042105,-0.00210518,-0.01576748,-0.02226986,0.00222909,-0.075
 62454,-0.06216971,0.01082161,-0.00035165,-0.00287130,-0.00084619,0.435
 29800,0.00242062,0.00004574,0.00113130,-0.01103953,-0.00006712,-0.0025
 7141,-0.03098046,-0.16053861,0.02640511,-0.00337531,-0.00755594,0.0009
 4644,-0.06428977,0.60444733,-0.00178361,0.00018537,-0.00140206,-0.0047
 8619,-0.01669403,0.00395327,0.00830330,0.02627331,-0.09423635,0.011951
 97,0.02915263,-0.00063221,-0.00870800,0.03075963,0.64926543,-0.0013189
 9,-0.00028071,-0.00187523,-0.00006589,-0.00721787,0.00442927,-0.045361
 21,-0.01142763,-0.00830209,0.00084215,-0.00107486,0.00073417,-0.199181
 40,-0.00110671,-0.02138353,0.42765783,-0.00070673,-0.00000391,-0.00103
 368,-0.00225010,-0.00142500,0.00180759,-0.00838936,-0.01353697,-0.0078
 6822,-0.00100275,0.00193067,0.00066389,0.02653119,-0.08888120,0.003168
 96,-0.05059467,0.48680347,0.00014393,-0.00004008,0.00003296,-0.0009826
 4,0.00047317,0.00032124,0.00698010,-0.00665097,0.00314579,-0.00124696,
 0.00011233,-0.00029651,-0.01394862,0.00172876,-0.06837229,0.02192464,0
 .05491701,0.08112494,0.00218791,0.00019153,0.00175430,-0.00262402,-0.0
 0206746,-0.00115779,-0.07564622,0.02675359,0.00898488,0.00444217,-0.00
 482365,-0.00214730,-0.02394415,0.03974391,0.00422060,-0.10768663,-0.02
 435888,-0.00436598,1.03253730,0.00095915,0.00022609,0.00122912,0.00542
 523,-0.00990549,-0.00225802,-0.00510699,0.02911666,0.00443006,0.004374
 51,-0.00480660,-0.00199121,0.06553004,-0.02189663,-0.00242691,0.016476
 70,-0.25934419,-0.03021693,-0.23155606,0.66147981,-0.00024031,-0.00001
 408,-0.00026881,-0.00128968,0.00031544,0.00101392,0.00654771,0.0065844
 7,-0.00650116,0.00347238,-0.00319856,-0.00067914,0.00904823,0.00205556
 ,-0.00456125,-0.00152145,-0.03180470,-0.06925040,-0.06062370,0.0724440
 5,0.24283691,-0.00154240,-0.00000787,-0.00178041,-0.00149788,0.0028011
 3,0.00326378,0.01062686,-0.01812202,-0.00562720,-0.00259320,0.00237297
 ,0.00079071,0.01129036,0.00136406,0.00118343,-0.02372550,0.05660091,0.
 00973252,-0.62703354,0.25471867,0.05652124,0.74970811,0.00015290,-0.00
 000174,0.00009246,-0.00102478,0.00145352,-0.00010143,-0.00162636,-0.00
 143395,-0.00132258,0.00009989,0.00012530,0.00017287,-0.01420435,-0.005
 04249,-0.00360400,0.07596400,-0.05441896,-0.01122590,0.25367690,-0.224
 01700,-0.02808652,-0.31040206,0.25472620,0.00013759,-0.00000674,0.0002
 4030,0.00064084,-0.00048731,-0.00084933,-0.00072929,-0.00082451,0.0060
 7773,-0.00098403,0.00081848,-0.00011969,-0.00272253,-0.00218526,0.0053
 6689,0.01394420,-0.01202972,0.01722965,0.05616235,-0.02783018,-0.09361
 419,-0.07135822,0.04049530,0.04664248,-0.00259752,0.00070324,-0.006448
 79,-0.03795635,0.02704886,0.01235224,-0.10552565,0.05432627,0.03173810
 ,-0.01873673,0.01817587,0.00872455,-0.01765959,0.01653422,0.00407665,-
 0.00955510,-0.05185462,-0.00833357,-0.19442335,-0.09397128,-0.00815699
 ,-0.11144683,-0.00920803,0.00350136,0.49077218,-0.00217803,-0.00089886
 ,-0.00041676,0.00205546,0.00709756,0.00456652,0.02542824,-0.13140056,-
 0.02733249,0.00330836,0.00274675,-0.00361572,0.01041271,-0.04792615,-0
 .01818664,-0.02919739,-0.06990499,-0.01306073,-0.05778580,-0.17077841,
 -0.01886199,0.01044590,0.02899462,0.00233410,0.04093930,0.38657192,-0.
 00140513,-0.00040542,-0.00081104,-0.01154861,0.01065161,0.01006067,0.0
 2048159,-0.02449503,-0.07914454,0.02802687,-0.02453304,-0.00240003,-0.
 00393251,-0.00597030,0.00272716,-0.00253298,-0.01327896,0.02212955,-0.
 00183240,-0.01395013,-0.06978198,0.00761969,0.00292313,0.01964893,-0.0
 3609309,0.07072241,0.09539034,-0.23692150,-0.03490106,-0.13540978,-0.0
 1650280,-0.00364941,-0.01891087,-0.00137225,-0.00349610,0.00297061,0.0
 0008186,0.00011771,0.00007942,-0.00044869,0.00059403,-0.00069046,-0.00
 065508,-0.00022356,0.00005791,0.00067115,-0.00006080,-0.00010809,-0.00
 043585,0.00013991,0.00005826,-0.00053153,-0.00025279,-0.00008870,0.248
 77180,-0.03394089,-0.04446235,-0.02271466,-0.00690898,0.00389558,-0.00
 373949,-0.00025150,0.01318672,0.00181151,0.00001348,0.00001635,-0.0003
 4592,0.00127185,-0.00076825,0.00087306,0.00104441,-0.00007354,-0.00016
 197,0.00045983,0.00183779,0.00005822,-0.00060594,-0.00027678,0.0000720
 0,-0.00415346,-0.00101205,-0.00083962,0.03959453,0.03133125,-0.1416760
 0,-0.02350091,-0.16267198,0.01324687,0.00259608,0.01099539,0.00157079,
 0.00116504,-0.00064210,0.00016245,0.00002862,0.00029042,0.00008321,-0.
 00019318,0.00034241,0.00024484,0.00009566,-0.00001826,-0.00030226,-0.0
 0004199,0.00008786,0.00021634,-0.00004574,-0.00004661,0.00041977,-0.00
 003611,0.00015759,0.14743274,0.02398950,0.16057131,-0.06118443,-0.0061
 2071,0.03301320,-0.00003450,-0.00280691,0.02886251,0.00119442,0.001957
 52,0.00191152,-0.00017604,0.00000368,-0.00074403,0.00014793,-0.0000743
 5,0.00003326,0.00008244,0.00000979,-0.00001449,0.00006459,0.00012014,0
 .00005721,-0.00004205,-0.00001301,-0.00000219,-0.00025197,-0.00014131,
 -0.00026250,0.00661836,0.00149107,-0.02120691,0.05714999,-0.00606211,-
 0.04063836,0.01944587,-0.00134957,0.00680270,0.00590247,0.00096028,-0.
 00840706,0.00002815,-0.00020258,-0.00007522,0.00034550,-0.00056938,0.0
 0058330,-0.00028174,-0.00056754,-0.00009992,0.00016986,0.00006065,-0.0
 0074231,-0.00010224,0.00017859,0.00013307,-0.00001336,0.00169695,0.000
 57967,-0.00006730,0.00046701,0.00370078,-0.00370004,0.00864719,0.02763
 707,0.03801650,0.02040345,-0.33932520,-0.00052774,0.00053250,-0.008903
 22,-0.00142330,-0.00065908,0.00117991,0.00075028,0.00020066,0.00044538
 ,-0.00017348,-0.00010486,0.00019816,-0.00003395,-0.00001653,-0.0000073
 7,-0.00010573,0.00000225,0.00005987,0.00004551,-0.00001514,-0.00001877
 ,-0.00003530,-0.00005118,-0.00004782,0.00453849,0.00129226,-0.00991946
 ,-0.04263791,-0.02229756,0.35551966,-0.00041412,-0.00311639,0.02964213
 ,-0.06005310,-0.00636048,0.03688544,0.00291738,0.00050898,-0.02613868,
 -0.00369988,-0.00102135,-0.00236585,0.00101035,0.00156896,-0.00068419,
 -0.00021002,0.00012815,0.00031237,0.00013252,-0.00042410,0.00006230,-0
 .00001905,0.00006844,-0.00006241,0.00263300,-0.00021289,0.00119389,0.0
 0083126,0.00196623,-0.00021797,-0.00356694,-0.00322053,0.00158800,0.06
 030938,-0.00193353,0.00608976,0.00676753,-0.00701089,-0.04262722,0.020
 32426,0.00129389,0.00191552,-0.00542599,-0.00108817,0.00093061,-0.0003
 4979,0.00085535,0.00092775,-0.00074946,0.00001459,-0.00014809,0.000173
 13,0.00071854,0.00044638,0.00004491,-0.00039925,0.00001463,-0.00000424
 ,-0.00150663,0.00015067,0.00038583,0.00180435,-0.00734840,-0.00039868,
 -0.00311275,0.01057704,0.00074379,0.01039994,0.02926483,-0.00068860,0.
 00055585,-0.00647237,0.03837890,0.01979389,-0.33254485,0.00475556,0.00
 101650,-0.01554167,-0.00264373,-0.00069838,-0.00063035,0.00043608,0.00
 082385,0.00035753,-0.00012241,-0.00006950,0.00008484,0.00033039,0.0001
 5617,-0.00002834,-0.00027219,0.00003061,-0.00001008,-0.00030586,0.0002
 6989,0.00156995,-0.00000372,-0.00031240,0.00089828,0.00112832,0.000491
 29,0.00090042,-0.04082391,-0.02162646,0.35108408,-0.00038169,0.0002165
 5,0.00003503,0.00017201,0.00006000,0.00044343,0.00616306,-0.00629617,-
 0.01150217,0.00084455,0.00038691,0.00005383,-0.06204186,0.03523223,0.0
 4028824,-0.01793792,0.03223916,0.02237662,-0.00676209,-0.00762243,0.00
 193783,-0.00144696,0.00377749,-0.00041842,0.00269121,-0.00321116,-0.00
 005073,-0.00006992,-0.00001361,0.00002968,-0.00000951,-0.00002339,0.00
 002745,0.00007209,-0.00010161,0.00009705,0.07476452,-0.00053390,0.0000
 3021,-0.00032468,0.00015276,-0.00135196,0.00118609,0.00657559,-0.01355
 997,-0.01826555,0.00051588,0.00138383,-0.00004221,0.04437483,-0.175196
 61,-0.13221819,0.00204631,-0.00175217,-0.00169549,-0.00151430,-0.00104
 192,-0.00042341,0.00107307,-0.00032798,-0.00002731,0.00111484,-0.00501
 525,-0.00017799,-0.00014770,0.00006165,0.00007033,-0.00000529,-0.00001
 434,0.00002162,0.00002175,0.00004253,-0.00002688,-0.05000595,0.1882644
 4,0.00010959,-0.00012231,0.00005544,-0.00031861,-0.00001804,-0.0001262
 3,-0.00106711,0.00638766,0.00459606,-0.00033525,0.00010418,0.00088205,
 0.04950377,-0.14216274,-0.20229811,-0.00084788,0.00457569,0.00757959,-
 0.00109068,0.00235384,0.00054812,-0.00019460,0.00029349,-0.00021632,-0
 .00107689,0.00264966,0.00077602,0.00002583,0.00002019,-0.00001065,-0.0
 0005153,0.00000964,-0.00001550,0.00006779,-0.00003085,0.00016576,-0.04
 986567,0.14333613,0.20545924,-0.00007171,0.00002490,0.00000895,0.00059
 728,-0.00046637,0.00120726,0.00091549,-0.00493741,0.01506367,-0.000779
 18,-0.00331053,-0.00003820,-0.05125152,0.01209518,-0.03057358,-0.02277
 921,0.02412371,-0.03270788,-0.00189484,-0.00896550,-0.00570391,-0.0018
 5812,0.00263148,0.00182936,0.00261426,0.00046174,0.00042349,-0.0000323
 7,0.00003471,-0.00000322,0.00000702,-0.00000980,-0.00003038,0.00005996
 ,0.00007280,-0.00026029,0.00422984,-0.00335064,0.00617601,0.07018163,-
 0.00013622,0.00003562,-0.00016152,0.00096546,0.00074084,0.00132417,0.0
 0081404,-0.00821438,0.02704853,-0.00148367,-0.00416641,0.00000936,0.01
 512681,-0.08912369,0.08309934,0.00635088,0.00005576,0.00539960,0.00017
 074,0.00003142,0.00106200,0.00029126,-0.00018666,-0.00035499,0.0002553
 0,0.00036638,-0.00100654,-0.00000925,-0.00007797,-0.00002117,0.0000449
 5,-0.00004148,-0.00005145,-0.00031558,-0.00022401,-0.00041077,-0.00388
 664,0.01017080,-0.01910883,-0.01819724,0.09060641,0.00010234,-0.000047
 17,0.00029685,-0.00123217,-0.00029419,0.00073608,0.00162550,0.00045081
 ,-0.00295467,0.00003680,0.00068693,0.00108912,-0.03792139,0.08742430,-
 0.29009295,-0.00482397,0.00107496,0.00645348,0.00022722,-0.00196926,0.
 00013228,-0.00018716,0.00042972,-0.00032370,-0.00038375,0.00107876,-0.
 00026280,0.00005219,-0.00000361,-0.00003446,-0.00008823,0.00006746,-0.
 00006397,0.00054509,0.00015163,0.00017273,-0.00269545,0.00860683,-0.01
 624600,0.04461821,-0.09689221,0.30126546,-0.00002698,0.00000415,-0.000
 00187,0.00002747,0.00000783,0.00001108,0.00010347,0.00003066,-0.000014
 32,-0.00000320,-0.00002098,0.00000427,-0.00131426,0.00131292,-0.001447
 89,-0.00010549,-0.00025224,0.00007207,-0.00002079,0.00010273,-0.000002
 76,0.00001605,-0.00003240,0.00000313,-0.00002605,-0.00007234,0.0000011
 3,-0.00000444,-0.00000170,-0.00000033,0.00000069,-0.00000577,0.0000015
 7,-0.00000285,-0.00000663,-0.00000559,-0.00028731,-0.00031726,-0.00103
 475,0.00006147,0.00000917,0.00012476,0.00158221,0.00004398,-0.00000076
 ,0.00005503,-0.00006445,0.00005722,-0.00009838,-0.00051024,-0.00022320
 ,0.00012375,0.00003184,0.00008998,-0.00001839,0.00269265,-0.00900744,0
 .00064866,-0.00042951,0.00079905,0.00007822,0.00033046,-0.00060560,-0.
 00007314,-0.00030941,0.00025821,0.00004375,-0.00010084,0.00042871,0.00
 004134,0.00002314,-0.00001078,-0.00000740,0.,0.00000506,-0.00000074,0.
 00000887,-0.00001198,0.00000633,-0.00075137,-0.00169326,0.00171228,-0.
 00020704,0.00002736,-0.00076497,-0.00075810,0.00988745,-0.00001076,0.0
 0000116,-0.00000911,0.00000736,-0.00001697,0.00002205,0.00006547,0.000
 02318,-0.00008881,0.00000414,0.00001295,0.00000069,-0.00176410,0.00191
 282,-0.00061562,0.00016639,-0.00020245,-0.00015720,-0.00005389,0.00006
 914,0.00000630,0.00004656,-0.00003627,-0.00000730,0.00002158,-0.000059
 74,-0.00001200,-0.00000382,0.00000094,0.00000025,0.00000176,0.00000200
 ,-0.00000210,-0.00000399,-0.00000561,-0.00000593,-0.00075671,-0.000019
 29,-0.00114947,-0.00000950,0.00006447,-0.00016745,0.00228950,-0.001746
 34,0.00218569\\0.00002102,-0.00001540,-0.00002306,-0.00001307,-0.00000
 295,0.00001171,-0.00000982,-0.00000031,0.00002263,0.00000132,-0.000000
 71,-0.00000826,0.00000552,-0.00002840,-0.00004427,0.00001622,0.0000363
 3,0.00002097,0.00001493,0.00004279,0.00001674,0.00000776,0.00001438,-0
 .00000529,-0.00000995,-0.00003796,-0.00000134,0.00000345,-0.00002128,0
 .00000929,0.00000057,-0.00001104,0.00000408,0.00000585,-0.00000983,0.0
 0000197,0.00001197,0.00002520,-0.00002973,-0.00001286,-0.00000013,-0.0
 0000268,-0.00004292,0.00000932,0.00002723\\\@


 IT IS THE GODS' CUSTOM TO BRING LOW ALL THINGS OF SURPASSING GREATNESS.
     -- HERODOTUS
 IT IS THE LOFTY PINE THAT BY THE STORM IS OFTENER TOSSED;
 TOWERS FALL WITH HEAVIER CRASH WHICH HIGHER SOAR.
     -- HORACE
 THE BIGGER THEY COME, THE HARDER THEY FALL.
     -- BOB FITZSIMONS HEAVYWEIGHT CHAMPION, 1897-1899
 Job cpu time:       0 days  0 hours 13 minutes 47.3 seconds.
 File lengths (MBytes):  RWF=    588 Int=      0 D2E=      0 Chk=     12 Scr=      8
 Normal termination of Gaussian 09 at Mon May 16 17:53:23 2022.
