 Entering Gaussian System, Link 0=g09
 Initial command:
 /gpfs/runtime/opt/gaussian/g09-D01/g09/l1.exe "/gpfs/data/yqi27/cgu13/CHEM1560Q/Gaussian/4427-96-7/opt_inp/Gau-142451.inp" -scrdir="/gpfs/data/yqi27/cgu13/CHEM1560Q/Gaussian/4427-96-7/opt_inp/"
 Entering Link 1 = /gpfs/runtime/opt/gaussian/g09-D01/g09/l1.exe PID=    142452.
  
 Copyright (c) 1988,1990,1992,1993,1995,1998,2003,2009,2013,
            Gaussian, Inc.  All Rights Reserved.
  
 This is part of the Gaussian(R) 09 program.  It is based on
 the Gaussian(R) 03 system (copyright 2003, Gaussian, Inc.),
 the Gaussian(R) 98 system (copyright 1998, Gaussian, Inc.),
 the Gaussian(R) 94 system (copyright 1995, Gaussian, Inc.),
 the Gaussian 92(TM) system (copyright 1992, Gaussian, Inc.),
 the Gaussian 90(TM) system (copyright 1990, Gaussian, Inc.),
 the Gaussian 88(TM) system (copyright 1988, Gaussian, Inc.),
 the Gaussian 86(TM) system (copyright 1986, Carnegie Mellon
 University), and the Gaussian 82(TM) system (copyright 1983,
 Carnegie Mellon University). Gaussian is a federally registered
 trademark of Gaussian, Inc.
  
 This software contains proprietary and confidential information,
 including trade secrets, belonging to Gaussian, Inc.
  
 This software is provided under written license and may be
 used, copied, transmitted, or stored only in accord with that
 written license.
  
 The following legend is applicable only to US Government
 contracts under FAR:
  
                    RESTRICTED RIGHTS LEGEND
  
 Use, reproduction and disclosure by the US Government is
 subject to restrictions as set forth in subparagraphs (a)
 and (c) of the Commercial Computer Software - Restricted
 Rights clause in FAR 52.227-19.
  
 Gaussian, Inc.
 340 Quinnipiac St., Bldg. 40, Wallingford CT 06492
  
  
 ---------------------------------------------------------------
 Warning -- This program may not be used in any manner that
 competes with the business of Gaussian, Inc. or will provide
 assistance to any competitor of Gaussian, Inc.  The licensee
 of this program is prohibited from giving any competitor of
 Gaussian, Inc. access to this program.  By using this program,
 the user acknowledges that Gaussian, Inc. is engaged in the
 business of creating and licensing software in the field of
 computational chemistry and represents and warrants to the
 licensee that it is not a competitor of Gaussian, Inc. and that
 it will not use this program in any manner prohibited above.
 ---------------------------------------------------------------
  

 Cite this work as:
 Gaussian 09, Revision D.01,
 M. J. Frisch, G. W. Trucks, H. B. Schlegel, G. E. Scuseria, 
 M. A. Robb, J. R. Cheeseman, G. Scalmani, V. Barone, B. Mennucci, 
 G. A. Petersson, H. Nakatsuji, M. Caricato, X. Li, H. P. Hratchian, 
 A. F. Izmaylov, J. Bloino, G. Zheng, J. L. Sonnenberg, M. Hada, 
 M. Ehara, K. Toyota, R. Fukuda, J. Hasegawa, M. Ishida, T. Nakajima, 
 Y. Honda, O. Kitao, H. Nakai, T. Vreven, J. A. Montgomery, Jr., 
 J. E. Peralta, F. Ogliaro, M. Bearpark, J. J. Heyd, E. Brothers, 
 K. N. Kudin, V. N. Staroverov, T. Keith, R. Kobayashi, J. Normand, 
 K. Raghavachari, A. Rendell, J. C. Burant, S. S. Iyengar, J. Tomasi, 
 M. Cossi, N. Rega, J. M. Millam, M. Klene, J. E. Knox, J. B. Cross, 
 V. Bakken, C. Adamo, J. Jaramillo, R. Gomperts, R. E. Stratmann, 
 O. Yazyev, A. J. Austin, R. Cammi, C. Pomelli, J. W. Ochterski, 
 R. L. Martin, K. Morokuma, V. G. Zakrzewski, G. A. Voth, 
 P. Salvador, J. J. Dannenberg, S. Dapprich, A. D. Daniels, 
 O. Farkas, J. B. Foresman, J. V. Ortiz, J. Cioslowski, 
 and D. J. Fox, Gaussian, Inc., Wallingford CT, 2013.
 
 ******************************************
 Gaussian 09:  EM64L-G09RevD.01 24-Apr-2013
                16-May-2022 
 ******************************************
 %Mem=16GB
 %NProcShared=8
 Will use up to    8 processors via shared memory.
 ----------------------------------------------------------------------
 #P M062X/6-31+G** EmpiricalDispersion=GD3 SCRF(SMD,solvent=DiMethylSul
 foxide) Opt Freq
 ----------------------------------------------------------------------
 1/14=-1,18=20,19=15,26=3,38=1/1,3;
 2/9=110,12=2,17=6,18=5,40=1/2;
 3/5=1,6=6,7=111,11=2,16=1,25=1,30=1,70=32201,71=1,72=21,74=-55,124=31/1,2,3;
 4//1;
 5/5=2,38=5,53=21/2;
 6/7=2,8=2,9=2,10=2,28=1/1;
 7//1,2,3,16;
 1/14=-1,18=20,19=15,26=3/3(2);
 2/9=110/2;
 99//99;
 2/9=110/2;
 3/5=1,6=6,7=111,11=2,16=1,25=1,30=1,70=32205,71=1,72=21,74=-55,124=31/1,2,3;
 4/5=5,16=3,69=1/1;
 5/5=2,38=5,53=21/2;
 7//1,2,3,16;
 1/14=-1,18=20,19=15,26=3/3(-5);
 2/9=110/2;
 6/7=2,8=2,9=2,10=2,19=2,28=1/1;
 99/9=1/99;
 Leave Link    1 at Mon May 16 18:20:33 2022, MaxMem=  2147483648 cpu:         1.0
 (Enter /gpfs/runtime/opt/gaussian/g09-D01/g09/l101.exe)
 ---------
 4427-96-7
 ---------
 Symbolic Z-matrix:
 Charge =  0 Multiplicity = 2
 C                     3.28925  -0.47785   0.11003 
 C                     2.1092   -0.24367  -0.45975 
 C                     0.89891   0.10226   0.33835 
 H                     1.10031   0.06255   1.41209 
 C                     0.21647   1.41099  -0.06746 
 O                    -1.19185   1.08443   0.04221 
 C                    -1.32299  -0.23042   0.02142 
 O                    -2.39915  -0.80177  -0.03841 
 O                    -0.16968  -0.86695   0.07537 
 H                     4.16831  -0.69833  -0.488 
 H                     3.41001  -0.45017   1.19074 
 H                     1.98177  -0.26468  -1.54123 
 H                     0.4335    2.23743   0.60603 
 H                     0.41739   1.68534  -1.10571 
 Li                   -4.19033  -0.4219   -0.12093 
 
 NAtoms=     15 NQM=       15 NQMF=       0 NMMI=      0 NMMIF=      0
                NMic=       0 NMicF=      0.
                    Isotopes and Nuclear Properties:
 (Nuclear quadrupole moments (NQMom) in fm**2, nuclear magnetic moments (NMagM)
  in nuclear magnetons)

  Atom         1           2           3           4           5           6           7           8           9          10
 IAtWgt=          12          12          12           1          12          16          12          16          16           1
 AtmWgt=  12.0000000  12.0000000  12.0000000   1.0078250  12.0000000  15.9949146  12.0000000  15.9949146  15.9949146   1.0078250
 NucSpn=           0           0           0           1           0           0           0           0           0           1
 AtZEff=   0.0000000   0.0000000   0.0000000   0.0000000   0.0000000   0.0000000   0.0000000   0.0000000   0.0000000   0.0000000
 NQMom=    0.0000000   0.0000000   0.0000000   0.0000000   0.0000000   0.0000000   0.0000000   0.0000000   0.0000000   0.0000000
 NMagM=    0.0000000   0.0000000   0.0000000   2.7928460   0.0000000   0.0000000   0.0000000   0.0000000   0.0000000   2.7928460
 AtZNuc=   6.0000000   6.0000000   6.0000000   1.0000000   6.0000000   8.0000000   6.0000000   8.0000000   8.0000000   1.0000000

  Atom        11          12          13          14          15
 IAtWgt=           1           1           1           1           7
 AtmWgt=   1.0078250   1.0078250   1.0078250   1.0078250   7.0160045
 NucSpn=           1           1           1           1           3
 AtZEff=   0.0000000   0.0000000   0.0000000   0.0000000   0.0000000
 NQMom=    0.0000000   0.0000000   0.0000000   0.0000000  -4.0100000
 NMagM=    2.7928460   2.7928460   2.7928460   2.7928460   3.2564240
 AtZNuc=   1.0000000   1.0000000   1.0000000   1.0000000   3.0000000
 Leave Link  101 at Mon May 16 18:20:33 2022, MaxMem=  2147483648 cpu:         2.0
 (Enter /gpfs/runtime/opt/gaussian/g09-D01/g09/l103.exe)

 GradGradGradGradGradGradGradGradGradGradGradGradGradGradGradGradGradGrad
 Berny optimization.
 Initialization pass.
                           ----------------------------
                           !    Initial Parameters    !
                           ! (Angstroms and Degrees)  !
 --------------------------                            --------------------------
 ! Name  Definition              Value          Derivative Info.                !
 --------------------------------------------------------------------------------
 ! R1    R(1,2)                  1.3312         estimate D2E/DX2                !
 ! R2    R(1,10)                 1.0858         estimate D2E/DX2                !
 ! R3    R(1,11)                 1.0878         estimate D2E/DX2                !
 ! R4    R(2,3)                  1.4904         estimate D2E/DX2                !
 ! R5    R(2,12)                 1.0892         estimate D2E/DX2                !
 ! R6    R(3,4)                  1.0932         estimate D2E/DX2                !
 ! R7    R(3,5)                  1.5307         estimate D2E/DX2                !
 ! R8    R(3,9)                  1.4664         estimate D2E/DX2                !
 ! R9    R(5,6)                  1.4498         estimate D2E/DX2                !
 ! R10   R(5,13)                 1.088          estimate D2E/DX2                !
 ! R11   R(5,14)                 1.0925         estimate D2E/DX2                !
 ! R12   R(6,7)                  1.3215         estimate D2E/DX2                !
 ! R13   R(7,8)                  1.2199         estimate D2E/DX2                !
 ! R14   R(7,9)                  1.3184         estimate D2E/DX2                !
 ! R15   R(8,15)                 1.8329         estimate D2E/DX2                !
 ! A1    A(2,1,10)             121.1753         estimate D2E/DX2                !
 ! A2    A(2,1,11)             121.2774         estimate D2E/DX2                !
 ! A3    A(10,1,11)            117.5465         estimate D2E/DX2                !
 ! A4    A(1,2,3)              122.1059         estimate D2E/DX2                !
 ! A5    A(1,2,12)             121.6909         estimate D2E/DX2                !
 ! A6    A(3,2,12)             116.1778         estimate D2E/DX2                !
 ! A7    A(2,3,4)              111.5866         estimate D2E/DX2                !
 ! A8    A(2,3,5)              114.7402         estimate D2E/DX2                !
 ! A9    A(2,3,9)              110.0173         estimate D2E/DX2                !
 ! A10   A(4,3,5)              111.9367         estimate D2E/DX2                !
 ! A11   A(4,3,9)              106.6415         estimate D2E/DX2                !
 ! A12   A(5,3,9)              101.1083         estimate D2E/DX2                !
 ! A13   A(3,5,6)              102.7342         estimate D2E/DX2                !
 ! A14   A(3,5,13)             113.3534         estimate D2E/DX2                !
 ! A15   A(3,5,14)             112.6207         estimate D2E/DX2                !
 ! A16   A(6,5,13)             108.5447         estimate D2E/DX2                !
 ! A17   A(6,5,14)             107.8836         estimate D2E/DX2                !
 ! A18   A(13,5,14)            111.1524         estimate D2E/DX2                !
 ! A19   A(5,6,7)              108.6207         estimate D2E/DX2                !
 ! A20   A(6,7,8)              123.6629         estimate D2E/DX2                !
 ! A21   A(6,7,9)              113.1357         estimate D2E/DX2                !
 ! A22   A(8,7,9)              123.2011         estimate D2E/DX2                !
 ! A23   A(7,8,15)             140.1068         estimate D2E/DX2                !
 ! A24   A(3,9,7)              109.0072         estimate D2E/DX2                !
 ! D1    D(10,1,2,3)          -178.0732         estimate D2E/DX2                !
 ! D2    D(10,1,2,12)            0.0232         estimate D2E/DX2                !
 ! D3    D(11,1,2,3)             1.5896         estimate D2E/DX2                !
 ! D4    D(11,1,2,12)          179.686          estimate D2E/DX2                !
 ! D5    D(1,2,3,4)             -4.0765         estimate D2E/DX2                !
 ! D6    D(1,2,3,5)            124.5823         estimate D2E/DX2                !
 ! D7    D(1,2,3,9)           -122.2359         estimate D2E/DX2                !
 ! D8    D(12,2,3,4)           177.7284         estimate D2E/DX2                !
 ! D9    D(12,2,3,5)           -53.6128         estimate D2E/DX2                !
 ! D10   D(12,2,3,9)            59.5689         estimate D2E/DX2                !
 ! D11   D(2,3,5,6)            140.6213         estimate D2E/DX2                !
 ! D12   D(2,3,5,13)          -102.4593         estimate D2E/DX2                !
 ! D13   D(2,3,5,14)            24.8213         estimate D2E/DX2                !
 ! D14   D(4,3,5,6)            -90.8951         estimate D2E/DX2                !
 ! D15   D(4,3,5,13)            26.0242         estimate D2E/DX2                !
 ! D16   D(4,3,5,14)           153.3049         estimate D2E/DX2                !
 ! D17   D(9,3,5,6)             22.2902         estimate D2E/DX2                !
 ! D18   D(9,3,5,13)           139.2095         estimate D2E/DX2                !
 ! D19   D(9,3,5,14)           -93.5099         estimate D2E/DX2                !
 ! D20   D(2,3,9,7)           -140.8589         estimate D2E/DX2                !
 ! D21   D(4,3,9,7)             97.9716         estimate D2E/DX2                !
 ! D22   D(5,3,9,7)            -19.1605         estimate D2E/DX2                !
 ! D23   D(3,5,6,7)            -19.2598         estimate D2E/DX2                !
 ! D24   D(13,5,6,7)          -139.5557         estimate D2E/DX2                !
 ! D25   D(14,5,6,7)            99.9015         estimate D2E/DX2                !
 ! D26   D(5,6,7,8)           -172.3391         estimate D2E/DX2                !
 ! D27   D(5,6,7,9)              7.8202         estimate D2E/DX2                !
 ! D28   D(6,7,8,15)            -0.1285         estimate D2E/DX2                !
 ! D29   D(9,7,8,15)           179.6964         estimate D2E/DX2                !
 ! D30   D(6,7,9,3)              8.1364         estimate D2E/DX2                !
 ! D31   D(8,7,9,3)           -171.7051         estimate D2E/DX2                !
 --------------------------------------------------------------------------------
 Trust Radius=3.00D-01 FncErr=1.00D-07 GrdErr=1.00D-06
 Number of steps in this run=     80 maximum allowed number of steps=    100.
 GradGradGradGradGradGradGradGradGradGradGradGradGradGradGradGradGradGrad

 Leave Link  103 at Mon May 16 18:20:33 2022, MaxMem=  2147483648 cpu:         0.2
 (Enter /gpfs/runtime/opt/gaussian/g09-D01/g09/l202.exe)
                          Input orientation:                          
 ---------------------------------------------------------------------
 Center     Atomic      Atomic             Coordinates (Angstroms)
 Number     Number       Type             X           Y           Z
 ---------------------------------------------------------------------
      1          6           0        3.289249   -0.477847    0.110027
      2          6           0        2.109204   -0.243669   -0.459747
      3          6           0        0.898909    0.102261    0.338345
      4          1           0        1.100314    0.062545    1.412085
      5          6           0        0.216470    1.410994   -0.067455
      6          8           0       -1.191849    1.084429    0.042212
      7          6           0       -1.322986   -0.230416    0.021417
      8          8           0       -2.399147   -0.801774   -0.038414
      9          8           0       -0.169676   -0.866948    0.075370
     10          1           0        4.168305   -0.698327   -0.487999
     11          1           0        3.410012   -0.450174    1.190741
     12          1           0        1.981765   -0.264683   -1.541228
     13          1           0        0.433504    2.237429    0.606031
     14          1           0        0.417394    1.685335   -1.105711
     15          3           0       -4.190326   -0.421902   -0.120925
 ---------------------------------------------------------------------
                    Distance matrix (angstroms):
                    1          2          3          4          5
     1  C    0.000000
     2  C    1.331160   0.000000
     3  C    2.470300   1.490447   0.000000
     4  H    2.603616   2.148344   1.093188   0.000000
     5  C    3.611259   2.544454   1.530744   2.188272   0.000000
     6  O    4.746108   3.593433   2.328866   2.859162   1.449839
     7  C    4.619717   3.465779   2.268906   2.809300   2.252121
     8  O    5.699545   4.562262   3.440407   3.885514   3.426170
     9  O    3.480914   2.422420   1.466423   2.064858   2.314849
    10  H    1.085811   2.108888   3.465939   3.688064   4.499232
    11  H    1.087792   2.111600   2.708764   2.376253   3.904576
    12  H    2.116978   1.089166   2.200004   3.099370   2.845376
    13  H    3.971652   3.178003   2.201636   2.413396   1.087971
    14  H    3.795382   2.645855   2.196196   3.072316   1.092524
    15  Li   7.483349   6.311152   5.136729   5.529528   4.773072
                    6          7          8          9         10
     6  O    0.000000
     7  C    1.321532   0.000000
     8  O    2.240944   1.219898   0.000000
     9  O    2.203136   1.318411   2.233324   0.000000
    10  H    5.673675   5.534684   6.583635   4.377659   0.000000
    11  H    4.985103   4.880254   5.948174   3.772522   1.858697
    12  H    3.794629   3.655737   4.662543   2.757682   2.465420
    13  H    2.071008   3.085010   4.204281   3.206647   4.874864
    14  H    2.066030   2.823020   3.906115   2.872934   4.486953
    15  Li   3.359540   2.877250   1.832876   4.049966   8.371252
                   11         12         13         14         15
    11  H    0.000000
    12  H    3.088357   0.000000
    13  H    4.052739   3.642581   0.000000
    14  H    4.334726   2.537617   1.798646   0.000000
    15  Li   7.712743   6.335352   5.383336   5.161524   0.000000
 Stoichiometry    C5H6LiO3(2)
 Framework group  C1[X(C5H6LiO3)]
 Deg. of freedom    39
 Full point group                 C1      NOp   1
 Largest Abelian subgroup         C1      NOp   1
 Largest concise Abelian subgroup C1      NOp   1
                         Standard orientation:                         
 ---------------------------------------------------------------------
 Center     Atomic      Atomic             Coordinates (Angstroms)
 Number     Number       Type             X           Y           Z
 ---------------------------------------------------------------------
      1          6           0       -3.289249   -0.477847   -0.110027
      2          6           0       -2.109204   -0.243669    0.459747
      3          6           0       -0.898909    0.102261   -0.338345
      4          1           0       -1.100314    0.062545   -1.412085
      5          6           0       -0.216470    1.410994    0.067455
      6          8           0        1.191849    1.084429   -0.042212
      7          6           0        1.322986   -0.230416   -0.021417
      8          8           0        2.399147   -0.801774    0.038414
      9          8           0        0.169676   -0.866948   -0.075370
     10          1           0       -4.168305   -0.698327    0.487999
     11          1           0       -3.410012   -0.450174   -1.190741
     12          1           0       -1.981765   -0.264683    1.541228
     13          1           0       -0.433504    2.237429   -0.606031
     14          1           0       -0.417394    1.685335    1.105711
     15          3           0        4.190326   -0.421902    0.120925
 ---------------------------------------------------------------------
 Rotational constants (GHZ):      5.5501560      1.0153254      0.8948906
 Leave Link  202 at Mon May 16 18:20:34 2022, MaxMem=  2147483648 cpu:         0.6
 (Enter /gpfs/runtime/opt/gaussian/g09-D01/g09/l301.exe)
 Standard basis: 6-31+G(d,p) (6D, 7F)
 Ernie: Thresh=  0.10000D-02 Tol=  0.10000D-05 Strict=F.
 There are   201 symmetry adapted cartesian basis functions of A   symmetry.
 There are   201 symmetry adapted basis functions of A   symmetry.
   201 basis functions,   330 primitive gaussians,   201 cartesian basis functions
    32 alpha electrons       31 beta electrons
       nuclear repulsion energy       397.8465207550 Hartrees.
 IExCor= 4336 DFT=T Ex+Corr=M062X ExCW=0 ScaHFX=  0.540000
 ScaDFX=  1.000000  1.000000  1.000000  1.000000 ScalE2=  1.000000  1.000000
 IRadAn=      0 IRanWt=     -1 IRanGd=            0 ICorTp=0 IEmpDi=131
 NAtoms=   15 NActive=   15 NUniq=   15 SFac= 1.00D+00 NAtFMM=   60 NAOKFM=F Big=F
 Integral buffers will be    131072 words long.
 Raffenetti 2 integral format.
 Two-electron integral symmetry is turned on.
 R6Disp:  Grimme-D3 Dispersion energy=       -0.0003381429 Hartrees.
 Nuclear repulsion after empirical dispersion term =      397.8461826121 Hartrees.
 ------------------------------------------------------------------------------
 Polarizable Continuum Model (PCM)
 =================================
 Model                : PCM (using non-symmetric T matrix).
 Atomic radii         : SMD-Coulomb.
 Polarization charges : Total charges.
 Charge compensation  : None.
 Solution method      : On-the-fly selection.
 Cavity type          : VdW (van der Waals Surface) (Alpha=1.000).
 Cavity algorithm     : GePol (No added spheres)
                        Default sphere list used, NSphG=   15.
                        Lebedev-Laikov grids with approx.  5.0 points / Ang**2.
                        Smoothing algorithm: Karplus/York (Gamma=1.0000).
                        Polarization charges: spherical gaussians, with
                                              point-specific exponents (IZeta= 3).
                        Self-potential: point-specific (ISelfS= 7).
                        Self-field    : sphere-specific E.n sum rule (ISelfD= 2).
 1st derivatives      : Analytical E(r).r(x)/FMM algorithm (CHGder, D1EAlg=3).
                        Cavity 1st derivative terms included.
 Solvent              : DiMethylSulfoxide, Eps=  46.826000 Eps(inf)=   2.007889
 ------------------------------------------------------------------------------
 Spheres list:
 ISph  on   Nord     Re0    Alpha      Xe            Ye            Ze
    1   C      1    1.8500  1.000     -3.289249     -0.477847     -0.110027
    2   C      2    1.8500  1.000     -2.109204     -0.243669      0.459747
    3   C      3    1.8500  1.000     -0.898909      0.102261     -0.338345
    4   H      4    1.2000  1.000     -1.100314      0.062545     -1.412085
    5   C      5    1.8500  1.000     -0.216470      1.410994      0.067455
    6   O      6    2.2940  1.000      1.191849      1.084429     -0.042212
    7   C      7    1.8500  1.000      1.322986     -0.230416     -0.021417
    8   O      8    2.2940  1.000      2.399147     -0.801774      0.038414
    9   O      9    2.2940  1.000      0.169676     -0.866948     -0.075370
   10   H     10    1.2000  1.000     -4.168305     -0.698327      0.487999
   11   H     11    1.2000  1.000     -3.410012     -0.450174     -1.190741
   12   H     12    1.2000  1.000     -1.981765     -0.264683      1.541228
   13   H     13    1.2000  1.000     -0.433504      2.237429     -0.606031
   14   H     14    1.2000  1.000     -0.417394      1.685335      1.105711
   15  Li     15    1.8200  1.000      4.190326     -0.421902      0.120925
 ------------------------------------------------------------------------------
 GePol: Number of generator spheres                  =      15
 GePol: Total number of spheres                      =      15
 GePol: Number of exposed spheres                    =      15 (100.00%)
 GePol: Number of points                             =    1455
 GePol: Average weight of points                     =       0.12
 GePol: Minimum weight of points                     =   0.51D-11
 GePol: Maximum weight of points                     =    0.17992
 GePol: Number of points with low weight             =      58
 GePol: Fraction of low-weight points (<1% of avg)   =       3.99%
 GePol: Cavity surface area                          =    179.804 Ang**2
 GePol: Cavity volume                                =    169.149 Ang**3
 ------------------------------------------------------------------------------
 Atomic radii for non-electrostatic terms: SMD-CDS.
 ------------------------------------------------------------------------------
 PCM non-electrostatic energy =         0.0019148639 Hartrees.
 Nuclear repulsion after PCM non-electrostatic terms =      397.8480974760 Hartrees.
 Leave Link  301 at Mon May 16 18:20:34 2022, MaxMem=  2147483648 cpu:         0.8
 (Enter /gpfs/runtime/opt/gaussian/g09-D01/g09/l302.exe)
 NPDir=0 NMtPBC=     1 NCelOv=     1 NCel=       1 NClECP=     1 NCelD=      1
         NCelK=      1 NCelE2=     1 NClLst=     1 CellRange=     0.0.
 One-electron integrals computed using PRISM.
 NBasis=   201 RedAO= T EigKep=  2.41D-05  NBF=   201
 NBsUse=   201 1.00D-06 EigRej= -1.00D+00 NBFU=   201
 Precomputing XC quadrature grid using
 IXCGrd= 4 IRadAn=           0 IRanWt=          -1 IRanGd=           0 AccXCQ= 0.00D+00.
 Generated NRdTot=       0 NPtTot=           0 NUsed=           0 NTot=          32
 NSgBfM=   201   201   201   201   201 MxSgAt=    15 MxSgA2=    15.
 Leave Link  302 at Mon May 16 18:20:35 2022, MaxMem=  2147483648 cpu:         6.8
 (Enter /gpfs/runtime/opt/gaussian/g09-D01/g09/l303.exe)
 DipDrv:  MaxL=1.
 Leave Link  303 at Mon May 16 18:20:35 2022, MaxMem=  2147483648 cpu:         0.8
 (Enter /gpfs/runtime/opt/gaussian/g09-D01/g09/l401.exe)
 ExpMin= 7.40D-03 ExpMax= 5.48D+03 ExpMxC= 8.25D+02 IAcc=3 IRadAn=         5 AccDes= 0.00D+00
 Harris functional with IExCor= 1009 and IRadAn=       5 diagonalized for initial guess.
 HarFok:  IExCor= 1009 AccDes= 0.00D+00 IRadAn=         5 IDoV= 1 UseB2=F ITyADJ=14
 ICtDFT=  3500011 ScaDFX=  1.000000  1.000000  1.000000  1.000000
 FoFCou: FMM=F IPFlag=           0 FMFlag=      100000 FMFlg1=           0
         NFxFlg=           0 DoJE=T BraDBF=F KetDBF=T FulRan=T
         wScrn=  0.000000 ICntrl=     500 IOpCl=  0 I1Cent=   200000004 NGrid=           0
         NMat0=    1 NMatS0=      1 NMatT0=    0 NMatD0=    1 NMtDS0=    0 NMtDT0=    0
 Petite list used in FoFCou.
 Harris En= -426.975898537306    
 JPrj=0 DoOrth=F DoCkMO=F.
 Initial guess <Sx>= 0.0000 <Sy>= 0.0000 <Sz>= 0.5000 <S**2>= 0.7500 S= 0.5000
 Leave Link  401 at Mon May 16 18:20:37 2022, MaxMem=  2147483648 cpu:        13.4
 (Enter /gpfs/runtime/opt/gaussian/g09-D01/g09/l502.exe)
 UHF open shell SCF:
 Using DIIS extrapolation, IDIIS=  1040.
 Integral symmetry usage will be decided dynamically.
 Keep R1 and R2 ints in memory in canonical form, NReq=417706977.
 IVT=      142861 IEndB=      142861 NGot=  2147483648 MDV=  1735189886
 LenX=  1735189886 LenY=  1735149044
 Requested convergence on RMS density matrix=1.00D-08 within 128 cycles.
 Requested convergence on MAX density matrix=1.00D-06.
 Requested convergence on             energy=1.00D-06.
 No special actions if energy rises.
 FoFCou: FMM=F IPFlag=           0 FMFlag=           0 FMFlg1=           0
         NFxFlg=           0 DoJE=F BraDBF=F KetDBF=F FulRan=T
         wScrn=  0.000000 ICntrl=     600 IOpCl=  0 I1Cent=           0 NGrid=           0
         NMat0=    1 NMatS0=  20301 NMatT0=    0 NMatD0=    1 NMtDS0=    0 NMtDT0=    0
 Symmetry not used in FoFCou.

 Cycle   1  Pass 1  IDiag  1:
 Inv3:  Mode=1 IEnd=     6351075.
 Iteration    1 A*A^-1 deviation from unit magnitude is 7.55D-15 for    769.
 Iteration    1 A*A^-1 deviation from orthogonality  is 4.43D-15 for    796    113.
 Iteration    1 A^-1*A deviation from unit magnitude is 6.66D-15 for    179.
 Iteration    1 A^-1*A deviation from orthogonality  is 7.02D-12 for   1143    643.
 E= -426.823961790778    
 DIIS: error= 1.95D-02 at cycle   1 NSaved=   1.
 NSaved= 1 IEnMin= 1 EnMin= -426.823961790778     IErMin= 1 ErrMin= 1.95D-02
 ErrMax= 1.95D-02  0.00D+00 EMaxC= 1.00D-01 BMatC= 1.40D+00 BMatP= 1.40D+00
 IDIUse=3 WtCom= 8.05D-01 WtEn= 1.95D-01
 Coeff-Com:  0.100D+01
 Coeff-En:   0.100D+01
 Coeff:      0.100D+01
 Gap=    -0.085 Goal=   None    Shift=    0.000
 Gap=     0.590 Goal=   None    Shift=    0.000
 GapD=   -0.085 DampG=0.250 DampE=0.500 DampFc=0.2500 IDamp=-1.
 Damping current iteration by 2.50D-01
 RMSDP=2.01D-02 MaxDP=1.94D+00              OVMax= 9.89D-01

 Cycle   2  Pass 1  IDiag  1:
 E= -426.937417240970     Delta-E=       -0.113455450192 Rises=F Damp=T
 DIIS: error= 1.08D-02 at cycle   2 NSaved=   2.
 NSaved= 2 IEnMin= 2 EnMin= -426.937417240970     IErMin= 2 ErrMin= 1.08D-02
 ErrMax= 1.08D-02  0.00D+00 EMaxC= 1.00D-01 BMatC= 3.72D-01 BMatP= 1.40D+00
 IDIUse=3 WtCom= 8.92D-01 WtEn= 1.08D-01
 Coeff-Com: -0.856D+00 0.186D+01
 Coeff-En:   0.000D+00 0.100D+01
 Coeff:     -0.763D+00 0.176D+01
 Gap=     0.042 Goal=   None    Shift=    0.000
 Gap=     0.343 Goal=   None    Shift=    0.000
 RMSDP=8.19D-03 MaxDP=6.42D-01 DE=-1.13D-01 OVMax= 9.39D-01

 Cycle   3  Pass 1  IDiag  1:
 E= -427.136959048660     Delta-E=       -0.199541807689 Rises=F Damp=F
 DIIS: error= 2.73D-03 at cycle   3 NSaved=   3.
 NSaved= 3 IEnMin= 3 EnMin= -427.136959048660     IErMin= 3 ErrMin= 2.73D-03
 ErrMax= 2.73D-03  0.00D+00 EMaxC= 1.00D-01 BMatC= 1.83D-02 BMatP= 3.72D-01
 IDIUse=3 WtCom= 9.73D-01 WtEn= 2.73D-02
 Coeff-Com: -0.266D+00 0.458D+00 0.808D+00
 Coeff-En:   0.000D+00 0.000D+00 0.100D+01
 Coeff:     -0.259D+00 0.445D+00 0.813D+00
 Gap=     0.061 Goal=   None    Shift=    0.000
 Gap=     0.289 Goal=   None    Shift=    0.000
 RMSDP=5.66D-03 MaxDP=4.91D-01 DE=-2.00D-01 OVMax= 8.13D-02

 Cycle   4  Pass 1  IDiag  1:
 E= -427.142402272044     Delta-E=       -0.005443223384 Rises=F Damp=F
 DIIS: error= 1.25D-03 at cycle   4 NSaved=   4.
 NSaved= 4 IEnMin= 4 EnMin= -427.142402272044     IErMin= 4 ErrMin= 1.25D-03
 ErrMax= 1.25D-03  0.00D+00 EMaxC= 1.00D-01 BMatC= 5.07D-03 BMatP= 1.83D-02
 IDIUse=3 WtCom= 9.88D-01 WtEn= 1.25D-02
 Coeff-Com: -0.990D-01 0.142D+00 0.374D+00 0.583D+00
 Coeff-En:   0.000D+00 0.000D+00 0.000D+00 0.100D+01
 Coeff:     -0.977D-01 0.140D+00 0.369D+00 0.589D+00
 Gap=     0.075 Goal=   None    Shift=    0.000
 Gap=     0.281 Goal=   None    Shift=    0.000
 RMSDP=1.48D-03 MaxDP=1.30D-01 DE=-5.44D-03 OVMax= 3.64D-02

 Cycle   5  Pass 1  IDiag  1:
 E= -427.143650879815     Delta-E=       -0.001248607771 Rises=F Damp=F
 DIIS: error= 3.12D-04 at cycle   5 NSaved=   5.
 NSaved= 5 IEnMin= 5 EnMin= -427.143650879815     IErMin= 5 ErrMin= 3.12D-04
 ErrMax= 3.12D-04  0.00D+00 EMaxC= 1.00D-01 BMatC= 3.14D-04 BMatP= 5.07D-03
 IDIUse=3 WtCom= 9.97D-01 WtEn= 3.12D-03
 Coeff-Com: -0.100D-01 0.123D-01-0.165D-01 0.139D+00 0.875D+00
 Coeff-En:   0.000D+00 0.000D+00 0.000D+00 0.000D+00 0.100D+01
 Coeff:     -0.100D-01 0.123D-01-0.165D-01 0.139D+00 0.875D+00
 Gap=     0.075 Goal=   None    Shift=    0.000
 Gap=     0.275 Goal=   None    Shift=    0.000
 RMSDP=8.87D-04 MaxDP=5.03D-02 DE=-1.25D-03 OVMax= 2.64D-02

 Cycle   6  Pass 1  IDiag  1:
 E= -427.143818883820     Delta-E=       -0.000168004005 Rises=F Damp=F
 DIIS: error= 1.42D-04 at cycle   6 NSaved=   6.
 NSaved= 6 IEnMin= 6 EnMin= -427.143818883820     IErMin= 6 ErrMin= 1.42D-04
 ErrMax= 1.42D-04  0.00D+00 EMaxC= 1.00D-01 BMatC= 6.18D-05 BMatP= 3.14D-04
 IDIUse=3 WtCom= 9.99D-01 WtEn= 1.42D-03
 Coeff-Com:  0.673D-02-0.982D-02-0.493D-01-0.133D-01 0.359D+00 0.707D+00
 Coeff-En:   0.000D+00 0.000D+00 0.000D+00 0.000D+00 0.000D+00 0.100D+01
 Coeff:      0.672D-02-0.981D-02-0.492D-01-0.133D-01 0.359D+00 0.707D+00
 Gap=     0.073 Goal=   None    Shift=    0.000
 Gap=     0.271 Goal=   None    Shift=    0.000
 RMSDP=3.38D-04 MaxDP=3.22D-02 DE=-1.68D-04 OVMax= 9.77D-03

 Cycle   7  Pass 1  IDiag  1:
 E= -427.143847270114     Delta-E=       -0.000028386294 Rises=F Damp=F
 DIIS: error= 8.76D-05 at cycle   7 NSaved=   7.
 NSaved= 7 IEnMin= 7 EnMin= -427.143847270114     IErMin= 7 ErrMin= 8.76D-05
 ErrMax= 8.76D-05  0.00D+00 EMaxC= 1.00D-01 BMatC= 9.22D-06 BMatP= 6.18D-05
 IDIUse=1 WtCom= 1.00D+00 WtEn= 0.00D+00
 Coeff-Com:  0.276D-02-0.333D-02-0.109D-01-0.147D-01 0.382D-01 0.270D+00
 Coeff-Com:  0.718D+00
 Coeff:      0.276D-02-0.333D-02-0.109D-01-0.147D-01 0.382D-01 0.270D+00
 Coeff:      0.718D+00
 Gap=     0.072 Goal=   None    Shift=    0.000
 Gap=     0.270 Goal=   None    Shift=    0.000
 RMSDP=1.36D-04 MaxDP=6.58D-03 DE=-2.84D-05 OVMax= 4.83D-03

 Cycle   8  Pass 1  IDiag  1:
 E= -427.143854996275     Delta-E=       -0.000007726161 Rises=F Damp=F
 DIIS: error= 4.19D-05 at cycle   8 NSaved=   8.
 NSaved= 8 IEnMin= 8 EnMin= -427.143854996275     IErMin= 8 ErrMin= 4.19D-05
 ErrMax= 4.19D-05  0.00D+00 EMaxC= 1.00D-01 BMatC= 1.69D-06 BMatP= 9.22D-06
 IDIUse=1 WtCom= 1.00D+00 WtEn= 0.00D+00
 Coeff-Com:  0.674D-03-0.944D-03 0.351D-02 0.234D-03-0.327D-01-0.457D-01
 Coeff-Com:  0.140D+00 0.935D+00
 Coeff:      0.674D-03-0.944D-03 0.351D-02 0.234D-03-0.327D-01-0.457D-01
 Coeff:      0.140D+00 0.935D+00
 Gap=     0.071 Goal=   None    Shift=    0.000
 Gap=     0.269 Goal=   None    Shift=    0.000
 RMSDP=1.38D-04 MaxDP=1.09D-02 DE=-7.73D-06 OVMax= 4.25D-03

 Cycle   9  Pass 1  IDiag  1:
 E= -427.143859011980     Delta-E=       -0.000004015704 Rises=F Damp=F
 DIIS: error= 3.23D-05 at cycle   9 NSaved=   9.
 NSaved= 9 IEnMin= 9 EnMin= -427.143859011980     IErMin= 9 ErrMin= 3.23D-05
 ErrMax= 3.23D-05  0.00D+00 EMaxC= 1.00D-01 BMatC= 6.94D-07 BMatP= 1.69D-06
 IDIUse=1 WtCom= 1.00D+00 WtEn= 0.00D+00
 Coeff-Com: -0.371D-03 0.391D-03 0.419D-02 0.405D-02-0.241D-01-0.903D-01
 Coeff-Com: -0.143D+00 0.355D+00 0.894D+00
 Coeff:     -0.371D-03 0.391D-03 0.419D-02 0.405D-02-0.241D-01-0.903D-01
 Coeff:     -0.143D+00 0.355D+00 0.894D+00
 Gap=     0.072 Goal=   None    Shift=    0.000
 Gap=     0.269 Goal=   None    Shift=    0.000
 RMSDP=1.68D-04 MaxDP=1.81D-02 DE=-4.02D-06 OVMax= 3.55D-03

 Cycle  10  Pass 1  IDiag  1:
 E= -427.143861261919     Delta-E=       -0.000002249939 Rises=F Damp=F
 DIIS: error= 1.94D-05 at cycle  10 NSaved=  10.
 NSaved=10 IEnMin=10 EnMin= -427.143861261919     IErMin=10 ErrMin= 1.94D-05
 ErrMax= 1.94D-05  0.00D+00 EMaxC= 1.00D-01 BMatC= 2.12D-07 BMatP= 6.94D-07
 IDIUse=1 WtCom= 1.00D+00 WtEn= 0.00D+00
 Coeff-Com: -0.158D-03 0.297D-03-0.144D-02-0.951D-03 0.784D-02 0.270D-01
 Coeff-Com:  0.400D-02-0.328D+00-0.120D+00 0.141D+01
 Coeff:     -0.158D-03 0.297D-03-0.144D-02-0.951D-03 0.784D-02 0.270D-01
 Coeff:      0.400D-02-0.328D+00-0.120D+00 0.141D+01
 Gap=     0.072 Goal=   None    Shift=    0.000
 Gap=     0.269 Goal=   None    Shift=    0.000
 RMSDP=2.09D-04 MaxDP=2.31D-02 DE=-2.25D-06 OVMax= 3.33D-03

 Cycle  11  Pass 1  IDiag  1:
 E= -427.143862536669     Delta-E=       -0.000001274751 Rises=F Damp=F
 DIIS: error= 1.09D-05 at cycle  11 NSaved=  11.
 NSaved=11 IEnMin=11 EnMin= -427.143862536669     IErMin=11 ErrMin= 1.09D-05
 ErrMax= 1.09D-05  0.00D+00 EMaxC= 1.00D-01 BMatC= 1.03D-07 BMatP= 2.12D-07
 IDIUse=1 WtCom= 1.00D+00 WtEn= 0.00D+00
 Coeff-Com:  0.160D-03-0.169D-03-0.230D-02-0.196D-02 0.126D-01 0.484D-01
 Coeff-Com:  0.578D-01-0.304D+00-0.418D+00 0.719D+00 0.890D+00
 Coeff:      0.160D-03-0.169D-03-0.230D-02-0.196D-02 0.126D-01 0.484D-01
 Coeff:      0.578D-01-0.304D+00-0.418D+00 0.719D+00 0.890D+00
 Gap=     0.072 Goal=   None    Shift=    0.000
 Gap=     0.269 Goal=   None    Shift=    0.000
 RMSDP=1.34D-04 MaxDP=1.42D-02 DE=-1.27D-06 OVMax= 2.10D-03

 Cycle  12  Pass 1  IDiag  1:
 E= -427.143862936259     Delta-E=       -0.000000399590 Rises=F Damp=F
 DIIS: error= 5.39D-06 at cycle  12 NSaved=  12.
 NSaved=12 IEnMin=12 EnMin= -427.143862936259     IErMin=12 ErrMin= 5.39D-06
 ErrMax= 5.39D-06  0.00D+00 EMaxC= 1.00D-01 BMatC= 2.67D-08 BMatP= 1.03D-07
 IDIUse=1 WtCom= 1.00D+00 WtEn= 0.00D+00
 Coeff-Com:  0.404D-04-0.459D-04-0.104D-03-0.715D-04 0.270D-02 0.751D-02
 Coeff-Com:  0.974D-02-0.603D-02-0.113D+00-0.178D+00 0.374D+00 0.903D+00
 Coeff:      0.404D-04-0.459D-04-0.104D-03-0.715D-04 0.270D-02 0.751D-02
 Coeff:      0.974D-02-0.603D-02-0.113D+00-0.178D+00 0.374D+00 0.903D+00
 Gap=     0.072 Goal=   None    Shift=    0.000
 Gap=     0.269 Goal=   None    Shift=    0.000
 RMSDP=6.57D-05 MaxDP=6.71D-03 DE=-4.00D-07 OVMax= 9.90D-04

 Cycle  13  Pass 1  IDiag  1:
 E= -427.143863019172     Delta-E=       -0.000000082913 Rises=F Damp=F
 DIIS: error= 2.36D-06 at cycle  13 NSaved=  13.
 NSaved=13 IEnMin=13 EnMin= -427.143863019172     IErMin=13 ErrMin= 2.36D-06
 ErrMax= 2.36D-06  0.00D+00 EMaxC= 1.00D-01 BMatC= 5.19D-09 BMatP= 2.67D-08
 IDIUse=1 WtCom= 1.00D+00 WtEn= 0.00D+00
 Coeff-Com:  0.226D-04-0.416D-04 0.358D-03 0.186D-03-0.118D-02-0.713D-02
 Coeff-Com: -0.120D-01 0.675D-01 0.567D-01-0.198D+00-0.730D-01 0.215D+00
 Coeff-Com:  0.951D+00
 Coeff:      0.226D-04-0.416D-04 0.358D-03 0.186D-03-0.118D-02-0.713D-02
 Coeff:     -0.120D-01 0.675D-01 0.567D-01-0.198D+00-0.730D-01 0.215D+00
 Coeff:      0.951D+00
 Gap=     0.072 Goal=   None    Shift=    0.000
 Gap=     0.269 Goal=   None    Shift=    0.000
 RMSDP=1.80D-05 MaxDP=1.89D-03 DE=-8.29D-08 OVMax= 3.20D-04

 Cycle  14  Pass 1  IDiag  1:
 E= -427.143863034224     Delta-E=       -0.000000015052 Rises=F Damp=F
 DIIS: error= 1.32D-06 at cycle  14 NSaved=  14.
 NSaved=14 IEnMin=14 EnMin= -427.143863034224     IErMin=14 ErrMin= 1.32D-06
 ErrMax= 1.32D-06  0.00D+00 EMaxC= 1.00D-01 BMatC= 1.55D-09 BMatP= 5.19D-09
 IDIUse=1 WtCom= 1.00D+00 WtEn= 0.00D+00
 Coeff-Com:  0.640D-05-0.960D-05 0.766D-04-0.107D-03-0.704D-03-0.283D-02
 Coeff-Com: -0.646D-02 0.143D-01 0.340D-01 0.186D-02-0.921D-01-0.158D+00
 Coeff-Com:  0.210D+00 0.100D+01
 Coeff:      0.640D-05-0.960D-05 0.766D-04-0.107D-03-0.704D-03-0.283D-02
 Coeff:     -0.646D-02 0.143D-01 0.340D-01 0.186D-02-0.921D-01-0.158D+00
 Coeff:      0.210D+00 0.100D+01
 Gap=     0.072 Goal=   None    Shift=    0.000
 Gap=     0.269 Goal=   None    Shift=    0.000
 RMSDP=8.24D-06 MaxDP=9.08D-04 DE=-1.51D-08 OVMax= 1.89D-04

 Cycle  15  Pass 1  IDiag  1:
 E= -427.143863039798     Delta-E=       -0.000000005574 Rises=F Damp=F
 DIIS: error= 8.44D-07 at cycle  15 NSaved=  15.
 NSaved=15 IEnMin=15 EnMin= -427.143863039798     IErMin=15 ErrMin= 8.44D-07
 ErrMax= 8.44D-07  0.00D+00 EMaxC= 1.00D-01 BMatC= 5.35D-10 BMatP= 1.55D-09
 IDIUse=1 WtCom= 1.00D+00 WtEn= 0.00D+00
 Coeff-Com: -0.192D-05 0.471D-05-0.951D-04-0.116D-03 0.378D-03 0.270D-02
 Coeff-Com:  0.387D-02-0.223D-01-0.219D-01 0.651D-01 0.376D-01-0.496D-01
 Coeff-Com: -0.387D+00-0.125D+00 0.150D+01
 Coeff:     -0.192D-05 0.471D-05-0.951D-04-0.116D-03 0.378D-03 0.270D-02
 Coeff:      0.387D-02-0.223D-01-0.219D-01 0.651D-01 0.376D-01-0.496D-01
 Coeff:     -0.387D+00-0.125D+00 0.150D+01
 Gap=     0.072 Goal=   None    Shift=    0.000
 Gap=     0.269 Goal=   None    Shift=    0.000
 RMSDP=5.07D-06 MaxDP=4.46D-04 DE=-5.57D-09 OVMax= 1.61D-04

 Cycle  16  Pass 1  IDiag  1:
 E= -427.143863042410     Delta-E=       -0.000000002611 Rises=F Damp=F
 DIIS: error= 3.35D-07 at cycle  16 NSaved=  16.
 NSaved=16 IEnMin=16 EnMin= -427.143863042410     IErMin=16 ErrMin= 3.35D-07
 ErrMax= 3.35D-07  0.00D+00 EMaxC= 1.00D-01 BMatC= 1.37D-10 BMatP= 5.35D-10
 IDIUse=1 WtCom= 1.00D+00 WtEn= 0.00D+00
 Coeff-Com: -0.393D-05 0.654D-05-0.352D-04-0.130D-04 0.244D-03 0.142D-02
 Coeff-Com:  0.214D-02-0.110D-01-0.154D-01 0.205D-01 0.340D-01 0.254D-01
 Coeff-Com: -0.162D+00-0.289D+00 0.516D+00 0.877D+00
 Coeff:     -0.393D-05 0.654D-05-0.352D-04-0.130D-04 0.244D-03 0.142D-02
 Coeff:      0.214D-02-0.110D-01-0.154D-01 0.205D-01 0.340D-01 0.254D-01
 Coeff:     -0.162D+00-0.289D+00 0.516D+00 0.877D+00
 Gap=     0.072 Goal=   None    Shift=    0.000
 Gap=     0.269 Goal=   None    Shift=    0.000
 RMSDP=2.01D-06 MaxDP=1.91D-04 DE=-2.61D-09 OVMax= 5.90D-05

 Cycle  17  Pass 1  IDiag  1:
 E= -427.143863042775     Delta-E=       -0.000000000365 Rises=F Damp=F
 DIIS: error= 1.54D-07 at cycle  17 NSaved=  17.
 NSaved=17 IEnMin=17 EnMin= -427.143863042775     IErMin=17 ErrMin= 1.54D-07
 ErrMax= 1.54D-07  0.00D+00 EMaxC= 1.00D-01 BMatC= 2.45D-11 BMatP= 1.37D-10
 IDIUse=1 WtCom= 1.00D+00 WtEn= 0.00D+00
 Coeff-Com:  0.727D-06-0.113D-05 0.144D-04 0.281D-04-0.346D-04-0.424D-03
 Coeff-Com: -0.689D-03 0.397D-02 0.366D-02-0.123D-01-0.736D-02 0.136D-01
 Coeff-Com:  0.896D-01-0.178D-01-0.352D+00 0.105D+00 0.117D+01
 Coeff:      0.727D-06-0.113D-05 0.144D-04 0.281D-04-0.346D-04-0.424D-03
 Coeff:     -0.689D-03 0.397D-02 0.366D-02-0.123D-01-0.736D-02 0.136D-01
 Coeff:      0.896D-01-0.178D-01-0.352D+00 0.105D+00 0.117D+01
 Gap=     0.072 Goal=   None    Shift=    0.000
 Gap=     0.269 Goal=   None    Shift=    0.000
 RMSDP=1.18D-06 MaxDP=1.14D-04 DE=-3.65D-10 OVMax= 3.16D-05

 Cycle  18  Pass 1  IDiag  1:
 E= -427.143863042848     Delta-E=       -0.000000000073 Rises=F Damp=F
 DIIS: error= 3.57D-08 at cycle  18 NSaved=  18.
 NSaved=18 IEnMin=18 EnMin= -427.143863042848     IErMin=18 ErrMin= 3.57D-08
 ErrMax= 3.57D-08  0.00D+00 EMaxC= 1.00D-01 BMatC= 2.60D-12 BMatP= 2.45D-11
 IDIUse=1 WtCom= 1.00D+00 WtEn= 0.00D+00
 Coeff-Com:  0.615D-06-0.871D-06 0.235D-05 0.289D-05-0.201D-04-0.141D-03
 Coeff-Com: -0.177D-03 0.125D-02 0.148D-02-0.288D-02-0.357D-02 0.206D-03
 Coeff-Com:  0.227D-01 0.191D-01-0.730D-01-0.987D-01 0.103D+00 0.103D+01
 Coeff:      0.615D-06-0.871D-06 0.235D-05 0.289D-05-0.201D-04-0.141D-03
 Coeff:     -0.177D-03 0.125D-02 0.148D-02-0.288D-02-0.357D-02 0.206D-03
 Coeff:      0.227D-01 0.191D-01-0.730D-01-0.987D-01 0.103D+00 0.103D+01
 Gap=     0.072 Goal=   None    Shift=    0.000
 Gap=     0.269 Goal=   None    Shift=    0.000
 RMSDP=4.48D-07 MaxDP=5.07D-05 DE=-7.31D-11 OVMax= 6.68D-06

 Cycle  19  Pass 1  IDiag  1:
 E= -427.143863042851     Delta-E=       -0.000000000004 Rises=F Damp=F
 DIIS: error= 1.79D-08 at cycle  19 NSaved=  19.
 NSaved=19 IEnMin=19 EnMin= -427.143863042851     IErMin=19 ErrMin= 1.79D-08
 ErrMax= 1.79D-08  0.00D+00 EMaxC= 1.00D-01 BMatC= 7.26D-13 BMatP= 2.60D-12
 IDIUse=1 WtCom= 1.00D+00 WtEn= 0.00D+00
 Coeff-Com: -0.461D-06 0.637D-06 0.177D-06-0.202D-05-0.672D-05 0.772D-06
 Coeff-Com:  0.423D-04-0.164D-03-0.122D-04 0.738D-03-0.197D-03-0.178D-02
 Coeff-Com: -0.646D-02 0.939D-02 0.389D-01-0.499D-01-0.167D+00 0.330D+00
 Coeff-Com:  0.847D+00
 Coeff:     -0.461D-06 0.637D-06 0.177D-06-0.202D-05-0.672D-05 0.772D-06
 Coeff:      0.423D-04-0.164D-03-0.122D-04 0.738D-03-0.197D-03-0.178D-02
 Coeff:     -0.646D-02 0.939D-02 0.389D-01-0.499D-01-0.167D+00 0.330D+00
 Coeff:      0.847D+00
 Gap=     0.072 Goal=   None    Shift=    0.000
 Gap=     0.269 Goal=   None    Shift=    0.000
 RMSDP=2.27D-07 MaxDP=2.45D-05 DE=-3.64D-12 OVMax= 1.94D-06

 Cycle  20  Pass 1  IDiag  1:
 E= -427.143863042865     Delta-E=       -0.000000000014 Rises=F Damp=F
 DIIS: error= 7.99D-09 at cycle  20 NSaved=  20.
 NSaved=20 IEnMin=20 EnMin= -427.143863042865     IErMin=20 ErrMin= 7.99D-09
 ErrMax= 7.99D-09  0.00D+00 EMaxC= 1.00D-01 BMatC= 1.06D-13 BMatP= 7.26D-13
 IDIUse=1 WtCom= 1.00D+00 WtEn= 0.00D+00
 Coeff-Com: -0.345D-06 0.441D-06-0.502D-06-0.612D-06 0.200D-05 0.186D-04
 Coeff-Com:  0.414D-04-0.245D-03-0.204D-03 0.582D-03 0.512D-03-0.517D-04
 Coeff-Com: -0.550D-02-0.169D-02 0.200D-01 0.967D-02-0.585D-01-0.120D+00
 Coeff-Com:  0.167D+00 0.989D+00
 Coeff:     -0.345D-06 0.441D-06-0.502D-06-0.612D-06 0.200D-05 0.186D-04
 Coeff:      0.414D-04-0.245D-03-0.204D-03 0.582D-03 0.512D-03-0.517D-04
 Coeff:     -0.550D-02-0.169D-02 0.200D-01 0.967D-02-0.585D-01-0.120D+00
 Coeff:      0.167D+00 0.989D+00
 Gap=     0.072 Goal=   None    Shift=    0.000
 Gap=     0.269 Goal=   None    Shift=    0.000
 RMSDP=9.05D-08 MaxDP=9.56D-06 DE=-1.41D-11 OVMax= 9.91D-07

 Cycle  21  Pass 1  IDiag  1:
 E= -427.143863042865     Delta-E=        0.000000000000 Rises=F Damp=F
 DIIS: error= 3.81D-09 at cycle  21 NSaved=  20.
 NSaved=20 IEnMin=19 EnMin= -427.143863042865     IErMin=20 ErrMin= 3.81D-09
 ErrMax= 3.81D-09  0.00D+00 EMaxC= 1.00D-01 BMatC= 1.44D-14 BMatP= 1.06D-13
 IDIUse=1 WtCom= 1.00D+00 WtEn= 0.00D+00
 Coeff-Com:  0.136D-07-0.118D-06-0.248D-07 0.820D-07-0.495D-05-0.104D-04
 Coeff-Com:  0.496D-04 0.678D-04-0.136D-03-0.147D-03 0.467D-04 0.142D-02
 Coeff-Com:  0.669D-03-0.845D-02 0.411D-02 0.229D-01-0.398D-02-0.140D+00
 Coeff-Com: -0.241D+00 0.136D+01
 Coeff:      0.136D-07-0.118D-06-0.248D-07 0.820D-07-0.495D-05-0.104D-04
 Coeff:      0.496D-04 0.678D-04-0.136D-03-0.147D-03 0.467D-04 0.142D-02
 Coeff:      0.669D-03-0.845D-02 0.411D-02 0.229D-01-0.398D-02-0.140D+00
 Coeff:     -0.241D+00 0.136D+01
 Gap=     0.072 Goal=   None    Shift=    0.000
 Gap=     0.269 Goal=   None    Shift=    0.000
 RMSDP=3.06D-08 MaxDP=2.79D-06 DE= 4.55D-13 OVMax= 5.66D-07

 Cycle  22  Pass 1  IDiag  1:
 E= -427.143863042859     Delta-E=        0.000000000006 Rises=F Damp=F
 DIIS: error= 1.22D-09 at cycle  22 NSaved=  20.
 NSaved=20 IEnMin=18 EnMin= -427.143863042865     IErMin=20 ErrMin= 1.22D-09
 ErrMax= 1.22D-09  0.00D+00 EMaxC= 1.00D-01 BMatC= 1.23D-15 BMatP= 1.44D-14
 IDIUse=1 WtCom= 1.00D+00 WtEn= 0.00D+00
 Large coefficients: NSaved= 20 BigCof=    0.00 CofMax=   10.00 Det=-1.76D-15
 Inversion failed.  Reducing to 19 matrices.
 Large coefficients: NSaved= 19 BigCof=    0.00 CofMax=   10.00 Det=-1.76D-15
 Inversion failed.  Reducing to 18 matrices.
 Large coefficients: NSaved= 18 BigCof=    0.00 CofMax=   10.00 Det=-1.78D-15
 Inversion failed.  Reducing to 17 matrices.
 Large coefficients: NSaved= 17 BigCof=    0.00 CofMax=   10.00 Det=-1.81D-15
 Inversion failed.  Reducing to 16 matrices.
 Large coefficients: NSaved= 16 BigCof=    0.00 CofMax=   10.00 Det=-2.04D-15
 Inversion failed.  Reducing to 15 matrices.
 Coeff-Com: -0.294D-06 0.785D-06 0.104D-04 0.219D-05-0.624D-04 0.118D-04
 Coeff-Com:  0.384D-03-0.451D-03-0.129D-02-0.184D-03 0.152D-01 0.369D-02
 Coeff-Com: -0.733D-01-0.179D+00 0.123D+01
 Coeff:     -0.294D-06 0.785D-06 0.104D-04 0.219D-05-0.624D-04 0.118D-04
 Coeff:      0.384D-03-0.451D-03-0.129D-02-0.184D-03 0.152D-01 0.369D-02
 Coeff:     -0.733D-01-0.179D+00 0.123D+01
 Gap=     0.072 Goal=   None    Shift=    0.000
 Gap=     0.269 Goal=   None    Shift=    0.000
 RMSDP=4.16D-09 MaxDP=1.46D-07 DE= 5.68D-12 OVMax= 1.83D-07

 Error on total polarization charges =  0.05634
 SCF Done:  E(UM062X) =  -427.143863043     A.U. after   22 cycles
            NFock= 22  Conv=0.42D-08     -V/T= 2.0078
 <Sx>= 0.0000 <Sy>= 0.0000 <Sz>= 0.5000 <S**2>= 0.7526 S= 0.5013
 <L.S>= 0.000000000000E+00
 KE= 4.238350949206D+02 PE=-1.795218176647D+03 EE= 5.463911212072D+02
 SMD-CDS (non-electrostatic) energy       (kcal/mol) =       1.20
 (included in total energy above)
 Annihilation of the first spin contaminant:
 S**2 before annihilation     0.7526,   after     0.7500
 Leave Link  502 at Mon May 16 18:21:19 2022, MaxMem=  2147483648 cpu:       248.2
 (Enter /gpfs/runtime/opt/gaussian/g09-D01/g09/l601.exe)
 Copying SCF densities to generalized density rwf, IOpCl= 1 IROHF=0.

 **********************************************************************

            Population analysis using the SCF density.

 **********************************************************************

 Orbital symmetries:
 Alpha Orbitals:
       Occupied  (A) (A) (A) (A) (A) (A) (A) (A) (A) (A) (A) (A)
                 (A) (A) (A) (A) (A) (A) (A) (A) (A) (A) (A) (A)
                 (A) (A) (A) (A) (A) (A) (A) (A)
       Virtual   (A) (A) (A) (A) (A) (A) (A) (A) (A) (A) (A) (A)
                 (A) (A) (A) (A) (A) (A) (A) (A) (A) (A) (A) (A)
                 (A) (A) (A) (A) (A) (A) (A) (A) (A) (A) (A) (A)
                 (A) (A) (A) (A) (A) (A) (A) (A) (A) (A) (A) (A)
                 (A) (A) (A) (A) (A) (A) (A) (A) (A) (A) (A) (A)
                 (A) (A) (A) (A) (A) (A) (A) (A) (A) (A) (A) (A)
                 (A) (A) (A) (A) (A) (A) (A) (A) (A) (A) (A) (A)
                 (A) (A) (A) (A) (A) (A) (A) (A) (A) (A) (A) (A)
                 (A) (A) (A) (A) (A) (A) (A) (A) (A) (A) (A) (A)
                 (A) (A) (A) (A) (A) (A) (A) (A) (A) (A) (A) (A)
                 (A) (A) (A) (A) (A) (A) (A) (A) (A) (A) (A) (A)
                 (A) (A) (A) (A) (A) (A) (A) (A) (A) (A) (A) (A)
                 (A) (A) (A) (A) (A) (A) (A) (A) (A) (A) (A) (A)
                 (A) (A) (A) (A) (A) (A) (A) (A) (A) (A) (A) (A)
                 (A)
 Beta  Orbitals:
       Occupied  (A) (A) (A) (A) (A) (A) (A) (A) (A) (A) (A) (A)
                 (A) (A) (A) (A) (A) (A) (A) (A) (A) (A) (A) (A)
                 (A) (A) (A) (A) (A) (A) (A)
       Virtual   (A) (A) (A) (A) (A) (A) (A) (A) (A) (A) (A) (A)
                 (A) (A) (A) (A) (A) (A) (A) (A) (A) (A) (A) (A)
                 (A) (A) (A) (A) (A) (A) (A) (A) (A) (A) (A) (A)
                 (A) (A) (A) (A) (A) (A) (A) (A) (A) (A) (A) (A)
                 (A) (A) (A) (A) (A) (A) (A) (A) (A) (A) (A) (A)
                 (A) (A) (A) (A) (A) (A) (A) (A) (A) (A) (A) (A)
                 (A) (A) (A) (A) (A) (A) (A) (A) (A) (A) (A) (A)
                 (A) (A) (A) (A) (A) (A) (A) (A) (A) (A) (A) (A)
                 (A) (A) (A) (A) (A) (A) (A) (A) (A) (A) (A) (A)
                 (A) (A) (A) (A) (A) (A) (A) (A) (A) (A) (A) (A)
                 (A) (A) (A) (A) (A) (A) (A) (A) (A) (A) (A) (A)
                 (A) (A) (A) (A) (A) (A) (A) (A) (A) (A) (A) (A)
                 (A) (A) (A) (A) (A) (A) (A) (A) (A) (A) (A) (A)
                 (A) (A) (A) (A) (A) (A) (A) (A) (A) (A) (A) (A)
                 (A) (A)
 The electronic state is 2-A.
 Alpha  occ. eigenvalues --  -19.70958 -19.69659 -19.66462 -10.75203 -10.60584
 Alpha  occ. eigenvalues --  -10.60101 -10.49216 -10.48466  -2.18082  -1.30581
 Alpha  occ. eigenvalues --   -1.18163  -1.17689  -0.89196  -0.81719  -0.75113
 Alpha  occ. eigenvalues --   -0.69829  -0.64150  -0.62417  -0.59900  -0.57182
 Alpha  occ. eigenvalues --   -0.54693  -0.51093  -0.49016  -0.47689  -0.45588
 Alpha  occ. eigenvalues --   -0.42417  -0.41299  -0.40396  -0.38715  -0.36595
 Alpha  occ. eigenvalues --   -0.31003  -0.08556
 Alpha virt. eigenvalues --   -0.01394  -0.00005   0.00015   0.00224   0.02648
 Alpha virt. eigenvalues --    0.04648   0.04848   0.05535   0.05796   0.05910
 Alpha virt. eigenvalues --    0.06471   0.07130   0.07796   0.08697   0.08883
 Alpha virt. eigenvalues --    0.09095   0.10234   0.11339   0.12888   0.12980
 Alpha virt. eigenvalues --    0.14186   0.14609   0.15015   0.16600   0.17351
 Alpha virt. eigenvalues --    0.17949   0.18733   0.19016   0.19230   0.19961
 Alpha virt. eigenvalues --    0.21250   0.22438   0.23626   0.24594   0.26039
 Alpha virt. eigenvalues --    0.27053   0.27582   0.28301   0.29937   0.30087
 Alpha virt. eigenvalues --    0.30350   0.31266   0.31937   0.32727   0.33547
 Alpha virt. eigenvalues --    0.34899   0.36140   0.37654   0.38276   0.39626
 Alpha virt. eigenvalues --    0.40101   0.42877   0.43651   0.46676   0.47294
 Alpha virt. eigenvalues --    0.47720   0.49980   0.52657   0.54964   0.58146
 Alpha virt. eigenvalues --    0.61725   0.64786   0.67903   0.69044   0.71353
 Alpha virt. eigenvalues --    0.74621   0.75417   0.78232   0.81099   0.82537
 Alpha virt. eigenvalues --    0.83785   0.88857   0.90258   0.93011   0.93826
 Alpha virt. eigenvalues --    0.96442   1.00926   1.02342   1.05334   1.06694
 Alpha virt. eigenvalues --    1.07610   1.11708   1.13364   1.16614   1.20720
 Alpha virt. eigenvalues --    1.21841   1.23528   1.24579   1.26491   1.29611
 Alpha virt. eigenvalues --    1.32427   1.35472   1.36883   1.38116   1.39861
 Alpha virt. eigenvalues --    1.43693   1.44623   1.48164   1.48598   1.50772
 Alpha virt. eigenvalues --    1.52056   1.54422   1.57121   1.62155   1.66402
 Alpha virt. eigenvalues --    1.68138   1.76640   1.79634   1.81714   1.86685
 Alpha virt. eigenvalues --    1.87817   1.90761   1.91290   1.92093   1.95138
 Alpha virt. eigenvalues --    1.99183   2.00190   2.00921   2.03791   2.07085
 Alpha virt. eigenvalues --    2.08993   2.11022   2.16482   2.17107   2.18919
 Alpha virt. eigenvalues --    2.22099   2.25734   2.30261   2.34271   2.37127
 Alpha virt. eigenvalues --    2.43363   2.45340   2.48082   2.49584   2.53598
 Alpha virt. eigenvalues --    2.56358   2.60186   2.61604   2.64860   2.67686
 Alpha virt. eigenvalues --    2.71522   2.72780   2.75929   2.76559   2.83254
 Alpha virt. eigenvalues --    2.86501   2.87923   2.91051   2.92077   2.96310
 Alpha virt. eigenvalues --    2.98402   3.09111   3.14341   3.25899   3.27162
 Alpha virt. eigenvalues --    3.30412   3.33240   3.44157   3.47118   3.49396
 Alpha virt. eigenvalues --    3.71236   4.22793   4.40148   4.45199   4.54064
 Alpha virt. eigenvalues --    4.62070   4.66799   4.74716   4.82106
  Beta  occ. eigenvalues --  -19.70905 -19.69497 -19.66442 -10.75198 -10.60533
  Beta  occ. eigenvalues --  -10.60100 -10.48968 -10.48191  -2.18077  -1.30375
  Beta  occ. eigenvalues --   -1.18031  -1.17359  -0.88711  -0.81023  -0.74582
  Beta  occ. eigenvalues --   -0.69510  -0.63572  -0.62144  -0.59192  -0.56955
  Beta  occ. eigenvalues --   -0.54335  -0.50949  -0.48568  -0.47178  -0.45256
  Beta  occ. eigenvalues --   -0.41946  -0.40881  -0.40173  -0.38443  -0.36297
  Beta  occ. eigenvalues --   -0.27567
  Beta virt. eigenvalues --   -0.00675   0.00958   0.01400   0.01501   0.02968
  Beta virt. eigenvalues --    0.03645   0.04000   0.04633   0.05049   0.05438
  Beta virt. eigenvalues --    0.05816   0.06051   0.06661   0.06923   0.08025
  Beta virt. eigenvalues --    0.08260   0.08553   0.09168   0.10413   0.11973
  Beta virt. eigenvalues --    0.12173   0.12938   0.13763   0.14434   0.15355
  Beta virt. eigenvalues --    0.17528   0.18137   0.18410   0.18947   0.20070
  Beta virt. eigenvalues --    0.20489   0.21039   0.22146   0.23007   0.24708
  Beta virt. eigenvalues --    0.25143   0.26826   0.27399   0.27939   0.29581
  Beta virt. eigenvalues --    0.29727   0.29786   0.30845   0.31665   0.32490
  Beta virt. eigenvalues --    0.33480   0.34449   0.35969   0.37222   0.38056
  Beta virt. eigenvalues --    0.39237   0.39942   0.42779   0.43500   0.46711
  Beta virt. eigenvalues --    0.47180   0.47770   0.50185   0.52109   0.55039
  Beta virt. eigenvalues --    0.57708   0.62401   0.65143   0.68261   0.69261
  Beta virt. eigenvalues --    0.71872   0.75218   0.76606   0.79555   0.82103
  Beta virt. eigenvalues --    0.82779   0.84116   0.89048   0.91009   0.93302
  Beta virt. eigenvalues --    0.95109   0.96510   1.01405   1.02690   1.05984
  Beta virt. eigenvalues --    1.06859   1.07914   1.11796   1.14613   1.16689
  Beta virt. eigenvalues --    1.20770   1.22258   1.24411   1.25597   1.26594
  Beta virt. eigenvalues --    1.30164   1.32588   1.35551   1.37001   1.38314
  Beta virt. eigenvalues --    1.39993   1.43764   1.44621   1.48389   1.49674
  Beta virt. eigenvalues --    1.50879   1.53411   1.54719   1.58797   1.62473
  Beta virt. eigenvalues --    1.67202   1.68101   1.76929   1.79928   1.81906
  Beta virt. eigenvalues --    1.86959   1.88262   1.91263   1.91586   1.92725
  Beta virt. eigenvalues --    1.95873   1.99289   2.00900   2.01619   2.04296
  Beta virt. eigenvalues --    2.07352   2.09922   2.11761   2.16938   2.17794
  Beta virt. eigenvalues --    2.19508   2.22718   2.26615   2.31364   2.35300
  Beta virt. eigenvalues --    2.37862   2.43780   2.45743   2.49033   2.50444
  Beta virt. eigenvalues --    2.54124   2.57238   2.61079   2.62924   2.66033
  Beta virt. eigenvalues --    2.68736   2.72050   2.74474   2.76480   2.77177
  Beta virt. eigenvalues --    2.83884   2.86905   2.88458   2.91474   2.93237
  Beta virt. eigenvalues --    2.96583   2.98928   3.10552   3.14499   3.25970
  Beta virt. eigenvalues --    3.27336   3.32122   3.33454   3.45168   3.47832
  Beta virt. eigenvalues --    3.50500   3.74235   4.22882   4.42328   4.46142
  Beta virt. eigenvalues --    4.54999   4.62722   4.67594   4.75407   4.82511
          Condensed to atoms (all electrons):
               1          2          3          4          5          6
     1  C    7.263911  -1.269214  -0.188713  -0.003796   0.235094  -0.024356
     2  C   -1.269214   7.517107  -0.068187  -0.040853  -0.190134   0.034499
     3  C   -0.188713  -0.068187   7.036882   0.356204  -0.543619   0.027123
     4  H   -0.003796  -0.040853   0.356204   0.519323  -0.000189   0.004646
     5  C    0.235094  -0.190134  -0.543619  -0.000189   6.194676  -0.056418
     6  O   -0.024356   0.034499   0.027123   0.004646  -0.056418   8.484427
     7  C   -0.087269   0.140732  -0.456988   0.016190  -0.155072   0.281145
     8  O    0.005789   0.000721   0.018840  -0.001186  -0.004873  -0.151848
     9  O   -0.037673  -0.147187   0.185072  -0.040012  -0.183508  -0.103632
    10  H    0.473135  -0.101957  -0.000447   0.000200  -0.000591   0.000040
    11  H    0.497430  -0.147473   0.008009   0.003176   0.001769  -0.000032
    12  H   -0.017202   0.363398  -0.025892   0.003252  -0.000533  -0.000298
    13  H    0.008210  -0.011188  -0.062539  -0.004044   0.443381  -0.043326
    14  H   -0.001482   0.022286  -0.091173   0.003111   0.442383  -0.044403
    15  Li   0.000527   0.005523  -0.060609  -0.000089   0.043083  -0.018063
               7          8          9         10         11         12
     1  C   -0.087269   0.005789  -0.037673   0.473135   0.497430  -0.017202
     2  C    0.140732   0.000721  -0.147187  -0.101957  -0.147473   0.363398
     3  C   -0.456988   0.018840   0.185072  -0.000447   0.008009  -0.025892
     4  H    0.016190  -0.001186  -0.040012   0.000200   0.003176   0.003252
     5  C   -0.155072  -0.004873  -0.183508  -0.000591   0.001769  -0.000533
     6  O    0.281145  -0.151848  -0.103632   0.000040  -0.000032  -0.000298
     7  C    4.652541   0.463948   0.367279  -0.000562  -0.003602  -0.008179
     8  O    0.463948   8.169920  -0.117413  -0.000002   0.000001  -0.000167
     9  O    0.367279  -0.117413   8.434216   0.000489   0.000098   0.004431
    10  H   -0.000562  -0.000002   0.000489   0.543264  -0.034480  -0.005368
    11  H   -0.003602   0.000001   0.000098  -0.034480   0.545541   0.004177
    12  H   -0.008179  -0.000167   0.004431  -0.005368   0.004177   0.554493
    13  H    0.008939  -0.000538   0.006148   0.000003  -0.000016   0.000006
    14  H   -0.006359  -0.000799   0.004563  -0.000006   0.000012   0.002058
    15  Li  -0.031329   0.136173  -0.008985   0.000012   0.000055   0.000002
              13         14         15
     1  C    0.008210  -0.001482   0.000527
     2  C   -0.011188   0.022286   0.005523
     3  C   -0.062539  -0.091173  -0.060609
     4  H   -0.004044   0.003111  -0.000089
     5  C    0.443381   0.442383   0.043083
     6  O   -0.043326  -0.044403  -0.018063
     7  C    0.008939  -0.006359  -0.031329
     8  O   -0.000538  -0.000799   0.136173
     9  O    0.006148   0.004563  -0.008985
    10  H    0.000003  -0.000006   0.000012
    11  H   -0.000016   0.000012   0.000055
    12  H    0.000006   0.002058   0.000002
    13  H    0.469433  -0.027511  -0.000012
    14  H   -0.027511   0.495140  -0.000480
    15  Li  -0.000012  -0.000480   2.136151
          Atomic-Atomic Spin Densities.
               1          2          3          4          5          6
     1  C    1.975871  -1.095817  -0.475157   0.000069   0.229670  -0.021330
     2  C   -1.095817   1.235350   0.353245   0.003796  -0.110916   0.020618
     3  C   -0.475157   0.353245   0.533013  -0.011311  -0.517584   0.065783
     4  H    0.000069   0.003796  -0.011311  -0.003586   0.010717  -0.000711
     5  C    0.229670  -0.110916  -0.517584   0.010717   0.803790  -0.164762
     6  O   -0.021330   0.020618   0.065783  -0.000711  -0.164762   0.085223
     7  C   -0.001635   0.005912   0.037871  -0.004047  -0.102938   0.019950
     8  O    0.000287  -0.005323   0.009618   0.000152  -0.024962  -0.001508
     9  O    0.016922  -0.084021   0.053189   0.000766  -0.105788   0.012452
    10  H    0.015000  -0.008353  -0.004978  -0.000015  -0.000197  -0.000007
    11  H    0.014962  -0.000187  -0.014435   0.000078   0.001159   0.000011
    12  H   -0.019802   0.031443  -0.015958  -0.000013   0.005441  -0.000017
    13  H    0.005062  -0.006164  -0.007073   0.000087   0.012914  -0.003585
    14  H    0.002734  -0.007740   0.002265   0.000011   0.005674  -0.001784
    15  Li   0.003030   0.003827  -0.018918   0.000115   0.031304  -0.000335
               7          8          9         10         11         12
     1  C   -0.001635   0.000287   0.016922   0.015000   0.014962  -0.019802
     2  C    0.005912  -0.005323  -0.084021  -0.008353  -0.000187   0.031443
     3  C    0.037871   0.009618   0.053189  -0.004978  -0.014435  -0.015958
     4  H   -0.004047   0.000152   0.000766  -0.000015   0.000078  -0.000013
     5  C   -0.102938  -0.024962  -0.105788  -0.000197   0.001159   0.005441
     6  O    0.019950  -0.001508   0.012452  -0.000007   0.000011  -0.000017
     7  C    0.066237  -0.004802  -0.016609  -0.000020  -0.000180  -0.000981
     8  O   -0.004802   0.025316   0.007998   0.000000  -0.000001   0.000049
     9  O   -0.016609   0.007998   0.147905  -0.000079   0.000061   0.001633
    10  H   -0.000020   0.000000  -0.000079  -0.031180   0.000087   0.000407
    11  H   -0.000180  -0.000001   0.000061   0.000087  -0.030485  -0.000210
    12  H   -0.000981   0.000049   0.001633   0.000407  -0.000210  -0.024405
    13  H   -0.002654  -0.000040  -0.000385   0.000000   0.000003  -0.000007
    14  H   -0.003758   0.000010  -0.000643   0.000000   0.000004   0.000222
    15  Li  -0.004111  -0.006764  -0.006138   0.000007   0.000020   0.000066
              13         14         15
     1  C    0.005062   0.002734   0.003030
     2  C   -0.006164  -0.007740   0.003827
     3  C   -0.007073   0.002265  -0.018918
     4  H    0.000087   0.000011   0.000115
     5  C    0.012914   0.005674   0.031304
     6  O   -0.003585  -0.001784  -0.000335
     7  C   -0.002654  -0.003758  -0.004111
     8  O   -0.000040   0.000010  -0.006764
     9  O   -0.000385  -0.000643  -0.006138
    10  H    0.000000   0.000000   0.000007
    11  H    0.000003   0.000004   0.000020
    12  H   -0.000007   0.000222   0.000066
    13  H   -0.001580   0.000861   0.000185
    14  H    0.000861  -0.001309   0.000238
    15  Li   0.000185   0.000238   0.013372
 Mulliken charges and spin densities:
               1          2
     1  C   -0.854392   0.649866
     2  C   -0.108074   0.335668
     3  C   -0.133961  -0.010428
     4  H    0.184067  -0.003892
     5  C   -0.225448   0.073524
     6  O   -0.389504   0.009997
     7  C    0.818586  -0.011765
     8  O   -0.518566   0.000031
     9  O   -0.363885   0.027263
    10  H    0.126268  -0.029329
    11  H    0.125335  -0.029114
    12  H    0.125821  -0.022132
    13  H    0.213053  -0.002375
    14  H    0.202660  -0.003214
    15  Li   0.798041   0.015900
 Sum of Mulliken charges =   0.00000   1.00000
 Mulliken charges and spin densities with hydrogens summed into heavy atoms:
               1          2
     1  C   -0.602789   0.591423
     2  C    0.017747   0.313536
     3  C    0.050105  -0.014320
     5  C    0.190266   0.067935
     6  O   -0.389504   0.009997
     7  C    0.818586  -0.011765
     8  O   -0.518566   0.000031
     9  O   -0.363885   0.027263
    15  Li   0.798041   0.015900
 Electronic spatial extent (au):  <R**2>=           1184.1057
 Charge=              0.0000 electrons
 Dipole moment (field-independent basis, Debye):
    X=             22.4426    Y=              3.4406    Z=             -0.1707  Tot=             22.7054
 Quadrupole moment (field-independent basis, Debye-Ang):
   XX=            -19.3779   YY=            -57.2907   ZZ=            -48.0900
   XY=            -10.1377   XZ=              1.9565   YZ=             -0.7480
 Traceless Quadrupole moment (field-independent basis, Debye-Ang):
   XX=             22.2083   YY=            -15.7045   ZZ=             -6.5038
   XY=            -10.1377   XZ=              1.9565   YZ=             -0.7480
 Octapole moment (field-independent basis, Debye-Ang**2):
  XXX=            471.1255  YYY=             20.6554  ZZZ=             -1.0356  XYY=             33.3489
  XXY=            -11.9609  XXZ=             13.5994  XZZ=             18.9976  YZZ=              2.3432
  YYZ=             -0.3012  XYZ=              2.2145
 Hexadecapole moment (field-independent basis, Debye-Ang**3):
 XXXX=           -335.7520 YYYY=           -284.4961 ZZZZ=           -101.4653 XXXY=           -170.2829
 XXXZ=             11.8355 YYYX=            -54.7194 YYYZ=             -6.5937 ZZZX=              1.9061
 ZZZY=             -1.0597 XXYY=           -323.9609 XXZZ=           -224.6797 YYZZ=            -64.7316
 XXYZ=            -13.3317 YYXZ=             -2.6579 ZZXY=             -8.3902
 N-N= 3.978480974760D+02 E-N=-1.795218176781D+03  KE= 4.238350949206D+02
                          Isotropic Fermi Contact Couplings
        Atom                 a.u.       MegaHertz       Gauss      10(-4) cm-1
     1  C(13)              0.05475      61.55410      21.96403      20.53224
     2  C(13)              0.04368      49.10525      17.52197      16.37975
     3  C(13)              0.00399       4.48184       1.59923       1.49498
     4  H(1)              -0.00102      -4.54450      -1.62159      -1.51588
     5  C(13)              0.04767      53.59287      19.12327      17.87666
     6  O(17)              0.03875     -23.48982      -8.38175      -7.83536
     7  C(13)              0.00388       4.35791       1.55501       1.45364
     8  O(17)              0.02151     -13.03697      -4.65192      -4.34867
     9  O(17)              0.17344    -105.13888     -37.51617     -35.07056
    10  H(1)              -0.00673     -30.08184     -10.73395     -10.03422
    11  H(1)              -0.00653     -29.18984     -10.41566      -9.73668
    12  H(1)              -0.00606     -27.08154      -9.66337      -9.03343
    13  H(1)              -0.00033      -1.47296      -0.52559      -0.49133
    14  H(1)              -0.00030      -1.36159      -0.48585      -0.45418
    15  Li(7)              0.00150       2.59965       0.92762       0.86715
 --------------------------------------------------------
       Center         ----  Spin Dipole Couplings  ----
                      3XX-RR        3YY-RR        3ZZ-RR
 --------------------------------------------------------
     1   Atom       -0.162874      0.351850     -0.188976
     2   Atom       -0.136923      0.311146     -0.174223
     3   Atom        0.015112      0.005508     -0.020620
     4   Atom       -0.000768     -0.006342      0.007110
     5   Atom       -0.011711      0.018663     -0.006953
     6   Atom        0.060046     -0.031243     -0.028804
     7   Atom        0.003294     -0.001231     -0.002063
     8   Atom        0.009191     -0.005698     -0.003493
     9   Atom        0.061311     -0.001265     -0.060046
    10   Atom        0.007276      0.006418     -0.013694
    11   Atom       -0.031179      0.001814      0.029365
    12   Atom       -0.025662     -0.002265      0.027927
    13   Atom       -0.000057      0.003603     -0.003546
    14   Atom        0.002857      0.000743     -0.003600
    15   Atom        0.001446     -0.000679     -0.000767
 --------------------------------------------------------
                        XY            XZ            YZ
 --------------------------------------------------------
     1   Atom       -0.114025     -0.005144      0.024283
     2   Atom       -0.126509     -0.006555      0.039260
     3   Atom       -0.024379      0.005043     -0.010216
     4   Atom        0.000153     -0.007252     -0.000773
     5   Atom        0.000135     -0.001531     -0.000042
     6   Atom       -0.000706      0.019764     -0.001591
     7   Atom        0.003642      0.004061      0.005365
     8   Atom       -0.000772      0.010702      0.000884
     9   Atom       -0.088075      0.003955      0.001411
    10   Atom        0.004208     -0.029476     -0.007180
    11   Atom       -0.007628      0.004714      0.002975
    12   Atom       -0.008246      0.003908     -0.001161
    13   Atom        0.002767     -0.001921     -0.002804
    14   Atom        0.004011      0.001094      0.005335
    15   Atom       -0.000074     -0.000029     -0.000006
 --------------------------------------------------------


 ---------------------------------------------------------------------------------
              Anisotropic Spin Dipole Couplings in Principal Axis System
 ---------------------------------------------------------------------------------

       Atom             a.u.   MegaHertz   Gauss  10(-4) cm-1        Axes

              Baa    -0.1901   -25.505    -9.101    -8.507  0.0109 -0.0425  0.9990
     1 C(13)  Bbb    -0.1870   -25.094    -8.954    -8.370  0.9783  0.2071 -0.0019
              Bcc     0.3771    50.599    18.055    16.878 -0.2068  0.9774  0.0438
 
              Baa    -0.1788   -23.989    -8.560    -8.002 -0.3586 -0.1662  0.9186
     2 C(13)  Bbb    -0.1686   -22.630    -8.075    -7.549  0.8985  0.2052  0.3880
              Bcc     0.3474    46.619    16.635    15.550 -0.2530  0.9645  0.0758
 
              Baa    -0.0246    -3.302    -1.178    -1.101  0.1446  0.4209  0.8955
     3 C(13)  Bbb    -0.0124    -1.668    -0.595    -0.557  0.6459  0.6455 -0.4077
              Bcc     0.0370     4.971     1.774     1.658  0.7496 -0.6374  0.1785
 
              Baa    -0.0064    -3.428    -1.223    -1.143  0.1445  0.9805  0.1335
     4 H(1)   Bbb    -0.0050    -2.684    -0.958    -0.895  0.8478 -0.1922  0.4942
              Bcc     0.0115     6.112     2.181     2.039 -0.5102 -0.0417  0.8590
 
              Baa    -0.0122    -1.632    -0.582    -0.544  0.9594 -0.0038  0.2820
     5 C(13)  Bbb    -0.0065    -0.873    -0.311    -0.291 -0.2819  0.0031  0.9594
              Bcc     0.0187     2.505     0.894     0.835  0.0046  1.0000 -0.0019
 
              Baa    -0.0338     2.445     0.872     0.815 -0.1766  0.4863  0.8558
     6 O(17)  Bbb    -0.0305     2.205     0.787     0.735  0.1103  0.8737 -0.4737
              Bcc     0.0643    -4.649    -1.659    -1.551  0.9781 -0.0107  0.2079
 
              Baa    -0.0071    -0.948    -0.338    -0.316 -0.0663 -0.6529  0.7546
     7 C(13)  Bbb    -0.0019    -0.254    -0.091    -0.085  0.7179 -0.5564 -0.4184
              Bcc     0.0090     1.202     0.429     0.401  0.6930  0.5140  0.5056
 
              Baa    -0.0099     0.717     0.256     0.239 -0.4797 -0.2639  0.8368
     8 O(17)  Bbb    -0.0054     0.390     0.139     0.130 -0.1212  0.9645  0.2347
              Bcc     0.0153    -1.106    -0.395    -0.369  0.8690 -0.0111  0.4946
 
              Baa    -0.0656     4.746     1.693     1.583  0.4949  0.6893 -0.5291
     9 O(17)  Bbb    -0.0579     4.192     1.496     1.398  0.2959  0.4388  0.8485
              Bcc     0.1235    -8.938    -3.189    -2.981  0.8170 -0.5765  0.0132
 
              Baa    -0.0348   -18.561    -6.623    -6.191  0.5661  0.0851  0.8200
    10 H(1)   Bbb     0.0043     2.298     0.820     0.767 -0.2958  0.9494  0.1057
              Bcc     0.0305    16.263     5.803     5.425  0.7694  0.3024 -0.5626
 
              Baa    -0.0333   -17.765    -6.339    -5.926  0.9723  0.2183 -0.0835
    11 H(1)   Bbb     0.0034     1.792     0.639     0.598 -0.2243  0.9720 -0.0705
              Bcc     0.0299    15.973     5.700     5.328  0.0658  0.0873  0.9940
 
              Baa    -0.0285   -15.195    -5.422    -5.068  0.9530  0.2971 -0.0599
    12 H(1)   Bbb     0.0002     0.087     0.031     0.029 -0.2920  0.9530  0.0809
              Bcc     0.0283    15.107     5.391     5.039  0.0811 -0.0596  0.9949
 
              Baa    -0.0047    -2.533    -0.904    -0.845  0.2473  0.2337  0.9403
    13 H(1)   Bbb    -0.0015    -0.805    -0.287    -0.269  0.8523 -0.5141 -0.0963
              Bcc     0.0063     3.339     1.191     1.114  0.4609  0.8253 -0.3263
 
              Baa    -0.0074    -3.941    -1.406    -1.315  0.1474 -0.5924  0.7920
    14 H(1)   Bbb    -0.0003    -0.141    -0.050    -0.047  0.7513 -0.4537 -0.4793
              Bcc     0.0077     4.082     1.456     1.362  0.6433  0.6657  0.3782
 
              Baa    -0.0008    -0.159    -0.057    -0.053  0.0157  0.0847  0.9963
    15 Li(7)  Bbb    -0.0007    -0.141    -0.050    -0.047  0.0334  0.9958 -0.0852
              Bcc     0.0014     0.301     0.107     0.100  0.9993 -0.0346 -0.0128
 

 ---------------------------------------------------------------------------------

 No NMR shielding tensors so no spin-rotation constants.
 Leave Link  601 at Mon May 16 18:21:20 2022, MaxMem=  2147483648 cpu:         5.0
 (Enter /gpfs/runtime/opt/gaussian/g09-D01/g09/l701.exe)
 Compute integral first derivatives.
 ... and contract with generalized density number  0.
 R6Disp: Adding Grimme-D3 dispersion energy 1st derivatives to the gradient.
 D1PCM: PCM CHGder 1st derivatives, ID1Alg=3 FixD1E=F DoIter=F DoCFld=F I1PDM=0.
 GePol: Maximum number of non-zero 1st derivatives   =     277
 Leave Link  701 at Mon May 16 18:21:22 2022, MaxMem=  2147483648 cpu:        15.8
 (Enter /gpfs/runtime/opt/gaussian/g09-D01/g09/l702.exe)
 L702 exits ... SP integral derivatives will be done elsewhere.
 Leave Link  702 at Mon May 16 18:21:22 2022, MaxMem=  2147483648 cpu:         0.1
 (Enter /gpfs/runtime/opt/gaussian/g09-D01/g09/l703.exe)
 Compute integral first derivatives, UseDBF=F ICtDFT=           0.
 Integral derivatives from FoFJK, PRISM(SPDF).
 Calling FoFJK, ICntrl=      2127 FMM=F ISym2X=0 I1Cent= 0 IOpClX= 1 NMat=1 NMatS=1 NMatT=0.
 FoFJK:  IHMeth= 1 ICntrl=    2127 DoSepK=F KAlg= 0 I1Cent=   0 FoldK=F
 IRaf=         0 NMat=   1 IRICut=       1 DoRegI=T DoRafI=F ISym2E= 0.
 FoFCou: FMM=F IPFlag=           0 FMFlag=      100000 FMFlg1=         800
         NFxFlg=           0 DoJE=F BraDBF=F KetDBF=F FulRan=T
         wScrn=  0.000000 ICntrl=    2127 IOpCl=  1 I1Cent=           0 NGrid=           0
         NMat0=    1 NMatS0=      1 NMatT0=    0 NMatD0=    1 NMtDS0=    0 NMtDT0=    0
 Symmetry not used in FoFCou.
 Leave Link  703 at Mon May 16 18:21:26 2022, MaxMem=  2147483648 cpu:        26.9
 (Enter /gpfs/runtime/opt/gaussian/g09-D01/g09/l716.exe)
 Dipole        = 8.82958699D+00 1.35361866D+00-6.71471104D-02
 ***** Axes restored to original set *****
 -------------------------------------------------------------------
 Center     Atomic                   Forces (Hartrees/Bohr)
 Number     Number              X              Y              Z
 -------------------------------------------------------------------
      1        6           0.079389554   -0.021823679    0.035598941
      2        6          -0.083935431    0.027224139   -0.021282967
      3        6           0.039901393    0.011916423   -0.022489344
      4        1          -0.000136146    0.000536670    0.001115515
      5        6           0.003403066   -0.009310280    0.001657893
      6        8          -0.014515473    0.004258243   -0.000400216
      7        6           0.015606067   -0.004116920    0.004154061
      8        8          -0.012559029   -0.001865944   -0.002466483
      9        8          -0.031841056   -0.009128994    0.002194584
     10        1           0.002536054   -0.000212964    0.001853578
     11        1           0.002551699   -0.000482522    0.000565319
     12        1          -0.001973430    0.003188954   -0.000600421
     13        1          -0.000160260    0.000639975    0.000335732
     14        1          -0.000134694   -0.000691828   -0.000350922
     15        3           0.001867684   -0.000131275    0.000114732
 -------------------------------------------------------------------
 Cartesian Forces:  Max     0.083935431 RMS     0.021312554
 Leave Link  716 at Mon May 16 18:21:26 2022, MaxMem=  2147483648 cpu:         0.1
 (Enter /gpfs/runtime/opt/gaussian/g09-D01/g09/l103.exe)

 GradGradGradGradGradGradGradGradGradGradGradGradGradGradGradGradGradGrad
 Berny optimization.
 FormGI is forming the generalized inverse of G from B-inverse, IUseBI=4.
 Internal  Forces:  Max     0.095150915 RMS     0.012604084
 Search for a local minimum.
 Step number   1 out of a maximum of   80
 All quantities printed in internal units (Hartrees-Bohrs-Radians)
 RMS Force = .12604D-01 SwitMx=.10000D-02 MixMth= 1
 Mixed Optimization -- RFO/linear search
 Second derivative matrix not updated -- first step.
 ITU=  0
     Eigenvalues ---    0.00705   0.00892   0.01791   0.02028   0.02999
     Eigenvalues ---    0.02999   0.03086   0.04074   0.04506   0.04900
     Eigenvalues ---    0.05483   0.05870   0.08716   0.10721   0.11053
     Eigenvalues ---    0.12884   0.14977   0.15995   0.16000   0.16000
     Eigenvalues ---    0.21000   0.22001   0.24130   0.25000   0.25000
     Eigenvalues ---    0.28460   0.33401   0.34447   0.34523   0.34727
     Eigenvalues ---    0.34909   0.35048   0.35069   0.35301   0.37250
     Eigenvalues ---    0.56576   0.59232   0.60373   0.95428
 RFO step:  Lambda=-2.33463661D-02 EMin= 7.05034229D-03
 Linear search not attempted -- first point.
 Iteration  1 RMS(Cart)=  0.06766115 RMS(Int)=  0.00148642
 Iteration  2 RMS(Cart)=  0.00231704 RMS(Int)=  0.00033955
 Iteration  3 RMS(Cart)=  0.00000351 RMS(Int)=  0.00033954
 Iteration  4 RMS(Cart)=  0.00000000 RMS(Int)=  0.00033954
 ITry= 1 IFail=0 DXMaxC= 2.27D-01 DCOld= 1.00D+10 DXMaxT= 3.00D-01 DXLimC= 3.00D+00 Rises=F
 Variable       Old X    -DE/DX   Delta X   Delta X   Delta X     New X
                                 (Linear)    (Quad)   (Total)
    R1        2.51553   0.09515   0.00000   0.15455   0.15455   2.67008
    R2        2.05189   0.00106   0.00000   0.00282   0.00282   2.05471
    R3        2.05563   0.00086   0.00000   0.00229   0.00229   2.05792
    R4        2.81654  -0.01169   0.00000  -0.03270  -0.03270   2.78384
    R5        2.05823   0.00075   0.00000   0.00202   0.00202   2.06024
    R6        2.06582   0.00105   0.00000   0.00286   0.00286   2.06869
    R7        2.89269  -0.00235   0.00000  -0.00686  -0.00651   2.88618
    R8        2.77114   0.03005   0.00000   0.07974   0.07997   2.85111
    R9        2.73980   0.01095   0.00000   0.02575   0.02580   2.76560
   R10        2.05597   0.00066   0.00000   0.00177   0.00177   2.05774
   R11        2.06457   0.00013   0.00000   0.00036   0.00036   2.06493
   R12        2.49733   0.00129   0.00000   0.00121   0.00079   2.49812
   R13        2.30527   0.01049   0.00000   0.01073   0.01073   2.31601
   R14        2.49144  -0.00422   0.00000  -0.00632  -0.00663   2.48480
   R15        3.46363  -0.00186   0.00000  -0.01223  -0.01223   3.45140
    A1        2.11491   0.00235   0.00000   0.01283   0.01283   2.12773
    A2        2.11669   0.00140   0.00000   0.00764   0.00764   2.12433
    A3        2.05157  -0.00376   0.00000  -0.02050  -0.02050   2.03107
    A4        2.13115   0.00680   0.00000   0.02808   0.02796   2.15911
    A5        2.12391  -0.00066   0.00000   0.00122   0.00110   2.12501
    A6        2.02769  -0.00610   0.00000  -0.02850  -0.02863   1.99906
    A7        1.94755  -0.00474   0.00000  -0.02360  -0.02305   1.92451
    A8        2.00260   0.00386   0.00000   0.02197   0.02188   2.02447
    A9        1.92016   0.01131   0.00000   0.07237   0.07216   1.99232
   A10        1.95366   0.00143   0.00000  -0.00496  -0.00560   1.94806
   A11        1.86124  -0.00126   0.00000  -0.02767  -0.02782   1.83343
   A12        1.76467  -0.01084   0.00000  -0.03908  -0.03969   1.72498
   A13        1.79305   0.00845   0.00000   0.03776   0.03832   1.83137
   A14        1.97839  -0.00123   0.00000  -0.00301  -0.00305   1.97534
   A15        1.96560  -0.00220   0.00000  -0.01144  -0.01168   1.95393
   A16        1.89446  -0.00376   0.00000  -0.01460  -0.01506   1.87940
   A17        1.88292  -0.00206   0.00000  -0.00515  -0.00511   1.87782
   A18        1.93998   0.00108   0.00000  -0.00134  -0.00140   1.93858
   A19        1.89579  -0.00163   0.00000  -0.01066  -0.01080   1.88499
   A20        2.15833  -0.00456   0.00000  -0.01624  -0.01616   2.14217
   A21        1.97459   0.00079   0.00000   0.00206   0.00154   1.97613
   A22        2.15027   0.00378   0.00000   0.01426   0.01434   2.16460
   A23        2.44532  -0.00084   0.00000  -0.00307  -0.00307   2.44225
   A24        1.90253   0.00454   0.00000   0.02020   0.02050   1.92303
    D1       -3.10796  -0.00036   0.00000  -0.01047  -0.01060  -3.11856
    D2        0.00041   0.00082   0.00000   0.01905   0.01918   0.01958
[...]
   A20        1.89759  -0.00002   0.00000  -0.00004  -0.00004   1.89755
   A21        2.08121   0.00001   0.00000  -0.00004  -0.00004   2.08116
   A22        2.30434   0.00001   0.00000   0.00008   0.00008   2.30442
   A23        1.65289  -0.00002   0.00000  -0.00003  -0.00003   1.65286
   A24        1.31419   0.00000   0.00000   0.00008   0.00008   1.31428
    D1        3.13767   0.00000   0.00000   0.00015   0.00015   3.13782
    D2       -0.00396   0.00000   0.00000   0.00011   0.00011  -0.00385
    D3        0.00111   0.00000   0.00000   0.00010   0.00010   0.00120
    D4       -3.14052   0.00000   0.00000   0.00006   0.00006  -3.14046
    D5       -0.01059   0.00000   0.00000  -0.00011  -0.00011  -0.01070
    D6        3.10501   0.00000   0.00000   0.00006   0.00006   3.10507
    D7       -2.29041   0.00000   0.00000   0.00060   0.00060  -2.28981
    D8        3.13104   0.00000   0.00000  -0.00008  -0.00008   3.13096
    D9       -0.03655   0.00000   0.00000   0.00009   0.00009  -0.03646
   D10        0.85121   0.00000   0.00000   0.00064   0.00064   0.85185
   D11        2.17387   0.00000   0.00000   0.00015   0.00015   2.17402
   D12       -2.08246   0.00000   0.00000   0.00008   0.00008  -2.08238
   D13        0.04467   0.00000   0.00000   0.00012   0.00012   0.04479
   D14       -0.99314   0.00000   0.00000   0.00032   0.00032  -0.99282
   D15        1.03371   0.00000   0.00000   0.00025   0.00025   1.03396
   D16       -3.12234   0.00000   0.00000   0.00029   0.00029  -3.12205
   D17        0.99594   0.00001   0.00000  -0.00016  -0.00016   0.99578
   D18        3.02280   0.00000   0.00000  -0.00023  -0.00023   3.02257
   D19       -1.13325   0.00000   0.00000  -0.00019  -0.00019  -1.13344
   D20        2.91854  -0.00001   0.00000   0.00006   0.00006   2.91861
   D21        0.69043   0.00000   0.00000   0.00038   0.00038   0.69081
   D22       -1.10549   0.00000   0.00000  -0.00005  -0.00005  -1.10554
   D23       -1.36429   0.00000   0.00000   0.00121   0.00121  -1.36308
   D24        2.82067   0.00001   0.00000   0.00126   0.00126   2.82192
   D25        0.78782   0.00000   0.00000   0.00125   0.00125   0.78907
   D26        2.98989   0.00000   0.00000  -0.00091  -0.00091   2.98897
   D27       -0.16140   0.00000   0.00000  -0.00089  -0.00089  -0.16229
   D28       -0.05128  -0.00001   0.00000  -0.00102  -0.00102  -0.05230
   D29        3.10170  -0.00001   0.00000  -0.00105  -0.00105   3.10065
   D30        0.55720   0.00000   0.00000   0.00065   0.00065   0.55786
   D31       -2.59675   0.00001   0.00000   0.00069   0.00069  -2.59606
         Item               Value     Threshold  Converged?
 Maximum Force            0.000039     0.000450     YES
 RMS     Force            0.000009     0.000300     YES
 Maximum Displacement     0.002284     0.001800     NO 
 RMS     Displacement     0.000684     0.001200     YES
 Predicted change in Energy=-4.039022D-08
 GradGradGradGradGradGradGradGradGradGradGradGradGradGradGradGradGradGrad

 Leave Link  103 at Mon May 16 18:47:40 2022, MaxMem=  2147483648 cpu:         1.9
 (Enter /gpfs/runtime/opt/gaussian/g09-D01/g09/l9999.exe)
 1\1\GINC-NODE1319\Freq\UM062X\6-31+G(d,p)\C5H6Li1O3(2)\ROOT\16-May-202
 2\0\\#P Geom=AllCheck Guess=TCheck SCRF=Check GenChk UM062X/6-31+G(d,p
 ) Freq\\4427-96-7\\0,2\C,3.3509636125,-0.4785143896,0.4381633567\C,2.2
 592026462,0.0585617496,-0.2177264347\C,1.1525969227,0.6030607816,0.420
 7094072\H,1.1113855224,0.6122532235,1.5093303251\C,0.0065768012,1.2176
 084035,-0.3083624519\O,-1.2416329849,0.6051256172,0.0598630813\C,-1.56
 0842168,-0.6562037435,-0.5122615686\O,-2.5919881607,-1.1115950729,0.05
 9182205\O,-0.8637384127,-1.0961945996,-1.4137876755\H,4.1877982547,-0.
 8943351322,-0.1116473973\H,3.3951829435,-0.501318347,1.5235242793\H,2.
 2603317349,0.0579437473,-1.3081464438\H,-0.116261589,2.2713097788,-0.0
 379549279\H,0.136271638,1.139374631,-1.3904537444\Li,-2.7347047608,0.3
 001763522,1.2643169895\\Version=EM64L-G09RevD.01\State=2-A\HF=-427.234
 7432\S2=0.781066\S2-1=0.\S2A=0.750204\RMSD=3.264e-09\RMSF=2.355e-05\Ze
 roPoint=0.105976\Thermal=0.1153453\Dipole=-0.6584744,2.6284694,2.71857
 35\DipoleDeriv=0.0225175,-0.2456115,-0.0316171,-0.2305683,-0.3055976,0
 .0178375,0.0162496,-0.006261,0.0714573,-0.4329089,0.1332394,-0.0085641
 ,0.0891748,-0.2197565,0.0119553,-0.0121255,-0.0098834,0.0998239,0.1055
 459,-0.288673,-0.0172371,-0.1949519,-0.2211552,0.0309709,-0.1506129,0.
 1146082,0.1235259,0.078688,0.0610905,-0.0079954,0.1328627,0.1423616,0.
 0175924,0.0179944,-0.0077472,-0.1151976,1.2661893,0.1948513,0.058489,0
 .2483494,0.5582081,0.0015163,0.0712894,-0.2191309,0.3640965,-1.5312506
 ,-0.3741174,0.0670549,-0.798983,-1.5156004,-0.3189741,-0.0120832,-0.30
 78877,-0.7869873,2.2470245,0.5287766,-1.0473226,1.1617388,2.0762703,0.
 5713212,-0.7669809,0.7129337,1.7235914,-1.7705079,-0.3615587,0.5722042
 ,-0.5746609,-0.9668512,0.0912347,0.6114114,0.0533111,-1.0709438,-1.102
 1757,0.1067663,0.5111774,-0.0122978,-0.9191662,-0.39241,0.4209187,-0.3
 804248,-1.258659,0.0048962,0.099915,0.0303802,0.1078463,0.1616613,-0.0
 162899,0.0735359,-0.0381127,0.0263524,0.0821588,0.0640059,0.0277243,0.
 0654824,0.1808712,-0.0097735,-0.0398937,0.0188693,-0.0901063,0.1143302
 ,0.0427784,-0.0210688,0.0436043,0.1770206,0.0086733,0.0017331,0.004707
 8,-0.1098049,-0.1252266,0.1079812,-0.0110896,0.0157924,-0.1219919,-0.0
 314348,-0.0272067,-0.0542731,0.0988771,0.0072663,-0.0364951,-0.0073564
 ,0.0094232,0.1035966,-0.0462946,0.0167306,0.0738642,-0.0934528,1.03345
 28,-0.032949,-0.1147789,-0.0628124,0.8701292,0.064075,-0.2209603,0.045
 4265,1.0174271\Polar=131.7729344,-16.9149273,88.0108912,-3.6390787,1.8
 159506,87.2257445\PG=C01 [X(C5H6Li1O3)]\NImag=0\\0.55742300,-0.2317985
 1,0.20117391,-0.00119847,0.00131376,0.65262062,-0.19679628,0.07326233,
 -0.06175383,0.46010721,0.07327258,-0.08390527,0.03046731,-0.16653755,0
 .20376577,-0.13140523,0.06483773,-0.19259082,0.00899099,-0.00482926,0.
 71178865,-0.08891126,0.04788333,-0.02378532,-0.17901683,0.06498649,0.1
 2518501,0.52282087,0.04605495,-0.01587515,0.01096693,0.06683098,-0.079
 63114,-0.06046536,-0.20030629,0.22544373,0.01940149,-0.00968895,0.0347
 2481,0.05730502,-0.02757635,-0.18638219,-0.03437196,0.00747992,0.64509
 288,-0.00022354,-0.00163238,0.00044473,0.00395913,0.00014448,0.0251329
 4,-0.05186517,0.01083301,0.00974699,0.04757188,-0.00187822,-0.00234374
 ,-0.00054494,0.00135104,0.00394667,-0.01209444,0.01098356,-0.03627615,
 -0.00391703,-0.01573416,0.02658935,-0.00220812,0.00103154,0.00038346,0
 .00067801,-0.00046684,-0.01124330,0.01018330,-0.00244291,-0.33636345,-
 0.01256797,0.00317881,0.35654256,0.00460584,-0.00064837,0.00276078,-0.
 02210488,0.01579385,-0.00740878,-0.15465732,0.06369033,-0.06491390,0.0
 0262537,-0.00133572,0.00401885,0.44077616,0.00270688,0.00517938,-0.001
 47459,0.01318503,-0.00035061,0.00677073,0.06218937,-0.09985581,0.03526
 247,0.00021311,0.00256359,-0.00076074,-0.04769983,0.56292656,0.0049857
 2,-0.00273391,-0.00127639,0.00668814,-0.00346261,0.01168784,-0.0627437
 7,0.03764569,-0.14410844,-0.02335341,0.01480078,-0.01126960,0.00151478
 ,0.04379088,0.62105196,-0.00278342,0.00328184,0.00071213,-0.00066487,-
 0.00201141,-0.00674386,-0.04898425,-0.01056971,0.01230224,0.00290388,0
 .00095337,-0.00054768,-0.16041840,-0.03906341,0.05175193,0.36845524,-0
 .00076153,0.00001510,0.00064854,-0.00054375,-0.00086462,-0.00184351,0.
 00249458,0.00766805,-0.00231689,0.00002440,0.00064882,-0.00095068,-0.0
 4507931,-0.09133609,0.00481100,0.14332269,0.31651150,-0.00026529,0.000
 58312,0.00049907,-0.00075481,0.00044760,-0.00087426,-0.00907639,-0.007
 30199,0.01062692,0.00096833,-0.00080980,0.00130847,0.03826373,-0.00649
 618,-0.09490225,-0.10988852,0.06698448,0.19147263,-0.00025711,0.000186
 49,-0.00065196,0.00124952,-0.00031440,0.00092040,-0.00110065,0.0005295
 5,-0.00127174,0.00012777,-0.00038223,0.00021846,-0.01542120,-0.0290000
 4,-0.01259287,-0.09631190,0.00339256,0.02730713,0.73705949,0.00121639,
 -0.00128618,-0.00096292,0.00154139,-0.00084443,0.00319431,0.00365716,0
 .00428129,-0.00473526,-0.00031132,-0.00071887,0.00034635,-0.04056709,-
 0.02916717,0.01431465,-0.00518137,-0.09594299,-0.01519928,0.01723719,0
 .43248983,0.00141745,-0.00103593,-0.00001092,-0.00077517,-0.00025008,0
 .00140380,0.00166372,0.00005505,-0.00187763,-0.00011861,-0.00025288,-0
 .00015883,-0.01916188,0.00523952,0.01245622,0.01982675,-0.02522545,-0.
 08979418,-0.39982333,0.11311324,0.66918133,-0.00004188,0.00006746,0.00
 044984,-0.00104559,0.00020972,-0.00092512,0.00055566,-0.00098552,0.001
 00944,-0.00015828,0.00033805,-0.00025737,0.01196173,-0.00192944,-0.003
 20210,-0.03785154,-0.06253699,0.00479567,-0.34800317,-0.11296680,0.140
 03579,0.43741126,-0.00025407,0.00030739,0.00043961,-0.00085396,0.00029
 438,-0.00124361,-0.00110427,-0.00152012,0.00162845,-0.00003659,0.00026
 801,-0.00020236,0.00998860,0.00008881,-0.00779830,-0.07871593,-0.05849
 621,0.00973748,-0.11490485,-0.15272770,0.05718626,0.18326917,0.2108367
 8,-0.00034325,0.00017454,-0.00029766,0.00085986,-0.00010078,0.00028494
 ,0.00029470,0.00100405,-0.00055252,-0.00004145,-0.00008484,0.00010397,
 0.00017670,-0.00249866,0.00373919,-0.00284571,-0.00010721,0.02169116,0
 .13770451,0.05532448,-0.17379995,-0.21288812,-0.03925630,0.19928292,0.
 00134395,-0.00092613,0.00064778,-0.00281807,0.00020927,-0.00003835,0.0
 0097340,-0.00122397,-0.00061912,-0.00008255,0.00004131,-0.00018666,-0.
 00467350,-0.00358485,0.00248324,0.01931305,0.01351688,0.01299244,-0.27
 745613,0.11075031,0.23381953,-0.05470374,0.00716924,0.07786845,0.31531
 529,-0.00051550,0.00038946,0.00015181,-0.00027074,-0.00035816,-0.00067
 093,-0.00056336,-0.00075833,0.00086032,-0.00008295,0.00029282,-0.00011
 137,0.01173431,0.00135034,-0.00314977,0.01172620,-0.05051125,-0.062641
 12,0.10802960,-0.16962252,-0.14445537,-0.00265526,0.03141157,0.0030834
 2,-0.12272729,0.19018946,-0.00012069,0.00014773,0.00046727,-0.00093017
 ,0.00043062,-0.00095802,-0.00134787,-0.00100962,0.00090426,0.00016676,
 0.00009137,0.00004296,0.01155727,0.00639691,-0.00469513,0.01248156,-0.
 06041719,-0.02955025,0.23043397,-0.14893994,-0.39468992,0.07161382,-0.
 00470548,-0.03592429,-0.31829901,0.20633787,0.45588067,-0.22322882,0.0
 9840999,0.11540001,-0.01279254,0.00906020,0.01449981,-0.00065395,0.003
 10328,-0.00380334,0.00000856,-0.00008630,0.00008134,0.00004538,0.00010
 643,0.00091600,-0.00054987,-0.00016858,-0.00011511,0.00021768,0.000451
 50,0.00015994,-0.00016183,-0.00016075,0.00005588,-0.00007482,-0.000116
 64,-0.00011152,0.23260095,0.09840449,-0.07323804,-0.05738076,0.0091976
 1,0.00075667,-0.00722493,0.00284771,0.00404877,0.00198146,-0.00005368,
 -0.00014403,-0.00005465,-0.00022083,-0.00027555,-0.00052276,0.00048722
 ,0.00021645,0.00005855,-0.00008136,-0.00019252,-0.00004045,0.00007808,
 0.00007589,-0.00002627,0.00003862,0.00005742,0.00005675,-0.10778752,0.
 06837425,0.11884765,-0.05898771,-0.13742001,-0.01182449,0.00591184,0.0
 1136755,-0.00340647,0.00164646,-0.00058712,-0.00017629,0.00007745,0.00
 019068,-0.00013320,0.00022522,0.00062256,-0.00036580,-0.00008784,-0.00
 009022,0.00008134,0.00020748,0.00008551,-0.00006690,-0.00007264,0.0000
 1789,0.00000565,-0.00005981,-0.00004791,-0.12398484,0.06155888,0.13288
 291,-0.05230808,0.01155169,-0.00760832,0.00440118,-0.00029943,-0.02474
 984,0.00000180,-0.00181483,-0.00085624,0.00000589,0.00002033,0.0007493
 9,0.00014200,-0.00005076,0.00008852,-0.00017904,-0.00005456,0.00000122
 ,0.00007637,0.00011166,0.00000513,-0.00004543,-0.00004659,0.00002609,-
 0.00004083,-0.00003194,-0.00002290,0.00476628,-0.00071708,0.02053785,0
 .04490228,0.01173082,-0.03411509,0.00380446,-0.00072746,0.00417479,0.0
 1226106,-0.00166867,-0.00297928,0.00035992,-0.00003543,-0.00006136,-0.
 00033872,-0.00008147,-0.00007043,0.00002993,0.00004300,-0.00000863,-0.
 00005728,-0.00008683,-0.00002249,0.00003569,0.00005136,0.00001809,-0.0
 0003217,0.00009650,-0.00000874,-0.00001983,-0.00069454,0.00382599,-0.0
 1020872,-0.01324317,0.02383181,-0.00931525,0.00452312,-0.34632273,-0.0
 0111523,0.00059675,-0.01135733,0.00264025,-0.00127948,0.00047590,-0.00
 058065,0.00029574,0.00013877,0.00009327,0.00000594,0.00034734,-0.00016
 393,-0.00004629,-0.00004772,0.00012881,0.00013405,-0.00002192,-0.00008
 175,-0.00006151,0.00005044,-0.00012004,-0.00003485,-0.00002917,-0.0030
 0276,0.00152591,-0.00783897,0.01347834,-0.00663796,0.36422039,0.003192
 74,0.00064148,-0.02539648,-0.05534273,0.00583181,0.00056975,0.00282148
 ,0.00089836,0.02481925,-0.00205917,0.00417992,0.00184393,-0.00000553,-
 0.00219526,0.00152999,-0.00020739,0.00013099,-0.00017849,-0.00030223,0
 .00012227,0.00032507,0.00013844,0.00001611,-0.00010230,0.00073157,0.00
 013527,0.00015297,-0.00005808,-0.00229737,0.00053676,-0.00165102,0.004
 59381,-0.00205758,0.05261195,0.00051118,0.00420240,0.01250346,0.005941
 13,-0.04635737,-0.00135754,0.00046891,0.00422815,-0.01171651,0.0042986
 2,0.00453023,-0.00068064,-0.00154104,-0.00325093,-0.00094840,-0.000804
 03,0.00016936,0.00020936,-0.00007525,0.00023204,0.00018500,0.00000593,
 -0.00006580,-0.00004960,0.00037886,0.00003825,0.00017669,-0.00227499,-
 0.00358154,-0.00025606,0.00455589,0.00540270,0.00105616,-0.01210780,0.
 03456434,0.00111431,-0.00039856,-0.01168459,0.00176600,-0.00099698,-0.
 33284119,-0.00077631,0.00034316,-0.01333495,0.00188063,-0.00097588,0.0
 0011095,-0.00161965,0.00053778,0.00082067,0.00013940,0.00036220,0.0002
 5314,0.00020043,-0.00037931,-0.00048223,-0.00008983,0.00005822,0.00015
 542,-0.00033803,0.00025969,0.00028347,0.00012148,-0.00004580,0.0009329
 4,-0.00179837,0.00086070,0.00043802,-0.00124734,0.00082205,0.35464638,
 -0.00190825,-0.00024882,0.00018303,-0.00031753,0.00042724,-0.00276403,
 -0.00548947,0.02393695,0.00694078,0.00036203,-0.00104677,-0.00017563,-
 0.04670499,0.04568456,0.01066193,-0.00931653,-0.04229372,-0.00837993,-
 0.00155841,0.00334649,0.00589514,-0.00288689,-0.00269978,-0.00015196,0
 .00111285,-0.00068043,-0.00145899,-0.00020275,0.00013964,-0.00012471,-
 0.00006289,0.00002629,-0.00006804,0.00029848,0.00043519,-0.00001230,0.
 06575698,0.00116364,-0.00038906,-0.00000905,-0.00110505,-0.00060937,0.
 00199802,0.00743253,-0.01018152,-0.00334536,0.00018184,0.00071756,0.00
 018602,0.03087415,-0.29464470,-0.06765453,-0.00859517,-0.02039087,-0.0
 0464932,-0.00002932,0.00458160,0.00389316,-0.00196102,-0.00196017,0.00
 011953,0.00037330,-0.00048852,-0.00065328,0.00018616,0.00004587,0.0000
 9647,0.00001832,-0.00001741,0.00001678,-0.00011783,-0.00009832,0.00004
 665,-0.02962709,0.32335909,-0.00070068,-0.00009976,0.00035088,-0.00055
 657,0.00019802,-0.00123855,-0.00426105,0.01598804,0.00666334,0.0005840
 5,-0.00080842,0.00041640,0.00601402,-0.06921761,-0.07257323,0.00500459
 ,0.01325416,0.00412876,0.00184597,-0.00176750,-0.00311781,0.00031767,0
 .00068011,0.00056521,-0.00191366,-0.00086459,0.00124065,-0.00011093,0.
 00006968,-0.00007004,0.00002897,-0.00000569,-0.00001615,-0.00005617,0.
 00002318,0.00022332,-0.00985206,0.07114966,0.06761366,-0.00021239,0.00
 009721,-0.00005458,0.00086775,-0.00068877,-0.00165776,0.00342786,-0.00
 147827,-0.02527914,-0.00314008,0.00273003,-0.00177751,-0.05183148,0.00
 204490,0.02141377,-0.01831481,-0.00608888,0.03505195,0.00052119,0.0046
 4232,0.00384310,-0.00054783,-0.00101549,-0.00087172,0.00061240,-0.0006
 7095,-0.00174715,0.00001169,-0.00000255,0.00004515,-0.00002522,0.00000
 816,0.00013677,-0.00016101,0.00020158,0.00068117,0.00062815,0.00094027
 ,0.00361602,0.06703014,0.00011282,-0.00008860,0.00006411,-0.00121239,0
 .00002651,0.00067763,0.00048012,0.00137821,0.01574395,0.00221131,-0.00
 004473,0.00128480,0.00523093,-0.05200015,-0.02958856,-0.00846076,-0.00
 152585,0.01753328,-0.00188531,0.00133936,0.00326675,0.00055559,-0.0001
 8800,-0.00116415,0.00034421,-0.00114166,-0.00106270,-0.00002967,0.0000
 2681,-0.00005164,-0.00000066,0.00002235,-0.00009334,0.00014746,-0.0000
 3252,-0.00047834,0.00294765,0.00031996,-0.02867599,-0.00075332,0.05184
 225,-0.00012348,0.00021405,0.00037546,0.00185703,-0.00059937,0.0014530
 1,0.00031338,-0.00190424,-0.01612264,-0.00205731,0.00092109,-0.0000813
 0,0.02600342,-0.02058337,-0.32123027,0.01000535,0.00459272,-0.00539512
 ,0.00098129,-0.00435157,-0.00310266,-0.00010602,0.00087036,0.00061038,
 -0.00253623,-0.00100680,0.00159958,-0.00003343,0.00001367,-0.00001344,
 0.00014271,-0.00006761,-0.00000521,-0.00076167,0.00006658,0.00048787,-
 0.00033422,-0.00077694,-0.00421272,-0.03269462,0.02267225,0.34521043,0
 .00010551,-0.00012760,-0.00014934,0.00031452,-0.00008408,0.00039407,0.
 00007782,0.00050116,-0.00040974,-0.00003573,-0.00013422,-0.00005235,-0
 .00433918,-0.00260668,-0.00014188,-0.01509016,-0.00535479,0.00927804,0
 .00115877,0.01594990,0.01288736,-0.00462090,-0.00065085,0.00025834,0.0
 0044712,-0.00331031,-0.00236803,0.00007213,-0.00003298,0.00002831,0.00
 001671,-0.00001235,0.00002780,-0.00000750,0.00000582,-0.00002159,0.000
 28921,0.00026527,0.00003982,0.00113365,0.00031201,-0.00065620,0.020478
 02,0.00003408,-0.00002649,0.00001227,-0.00005862,-0.00004382,-0.000009
 90,0.00021884,0.00002931,-0.00002012,-0.00002025,0.00003184,-0.0000186
 2,-0.00013852,-0.00115724,0.00046591,-0.00641252,-0.00615276,0.0016011
 2,0.01738420,0.00760073,-0.01171449,-0.00154035,-0.02834294,-0.0163860
 4,-0.00445625,-0.00084014,0.00317011,0.00000142,0.00000354,0.00000062,
 0.00000112,0.00000770,-0.00000102,0.00002077,0.00001901,-0.00001559,-0
 .00034741,-0.00024415,0.00007670,0.00003377,0.00006607,-0.00006082,-0.
 00472029,0.02904933,-0.00008615,0.00011923,0.00018156,-0.00043478,0.00
 023011,-0.00050015,-0.00051121,-0.00072571,0.00084082,-0.00002875,0.00
 012299,-0.00012173,0.00283460,0.00280171,-0.00067048,0.00833156,0.0003
 4196,-0.00932615,0.01451758,-0.01029878,-0.01607081,-0.00060504,-0.017
 26028,-0.01592710,-0.00376599,0.00230149,0.00547584,-0.00007251,0.0000
 3074,-0.00003233,-0.00002255,0.00001622,-0.00003165,0.00002232,-0.0000
 3372,-0.00000922,-0.00035902,-0.00041780,0.00002627,-0.00070545,-0.000
 12805,0.00042663,-0.01911461,0.02289988,0.03573852\\-0.00001313,-0.000
 00681,0.00001315,0.00001195,-0.00001832,0.00001097,-0.00000503,0.00000
 359,-0.00001233,0.00001111,0.00003259,-0.00000961,0.00000423,-0.000002
 68,-0.00001554,0.00002450,-0.00002089,-0.00003299,0.00002688,0.0000441
 2,0.00002025,-0.00003544,0.00000348,0.00003621,-0.00002489,-0.00001605
 ,0.00003046,-0.00001130,-0.00003324,0.00002005,-0.00000363,0.00001509,
 0.00001265,-0.00000328,-0.00004242,-0.00000046,0.00001798,0.00000600,-
 0.00005261,0.00000869,-0.00002897,-0.00002258,-0.00000863,0.00006450,0
 .00000239\\\@


 NOBODY LOSES ALL THE TIME
 I HAD AN UNCLE NAMED
 SOL WHO WAS A BORN FAILURE AND
 NEARLY EVERYBODY SAID HE SHOULD HAVE GONE
 INTO VAUDEVILLE PERHAPS BECAUSE MY UNCLE SOL COULD
 SING MCCANN HE WAS A DIVER ON XMAS EVE LIKE HELL ITSELF WHICH
 MAY OR MAY NOT ACCOUNT FOR THE FACT THAT MY UNCLE
 SOL INDULGED IN THAT POSSIBLY MOST INEXCUSABLE
 OF ALL TO USE A HIGHFALOOTIN PHRASE
 LUXURIES THAT IS OR TO
 WIT FARMING AND BE
 IT NEEDLESSLY
 ADDED
 MY UNCLE SOL'S FARM     
 FAILED BECAUSE THE CHICKENS
 ATE THE VEGETABLES SO
 MY UNCLE SOL HAD A
 CHICKEN FARM TILL THE
 SKUNKS ATE THE CHICKENS WHEN 
 MY UNCLE SOL
 HAD A SKUNK FARM BUT
 THE SKUNKS CAUGHT COLD AND
 DIED AND SO
 MY UNCLE SOL IMITATED THE
 SKUNKS IN A SUBTLE MANNER
 OR BY DROWNING HIMSELF IN THE WATERTANK
 BUT SOMEBODY WHO'D GIVEN MY UNCLE SOL A VICTOR     
 VICTROLA AND RECORDS WHILE HE LIVED PRESENTED TO
 HIM UPON THE AUSPICIOUS OCCASION OF HIS DECEASE A
 SCRUMPTIOUS NOT TO MENTION SPLENDIFEROUS FUNERAL WITH
 TALL BOYS IN BLACK GLOVES AND FLOWERS AND EVERYTHING AND
 I REMEMBER WE ALL CRIED LIKE THE MISSOURI
 WHEN MY UNCLE SOL'S COFFIN LURCHED BECAUSE     
 SOMEBODY PRESSED A BUTTON
 (AND DOWN WENT
 MY UNCLE
 SOL
 AND STARTED A WORM FARM)
           E. E. CUMMINGS
 Job cpu time:       0 days  0 hours 20 minutes 41.9 seconds.
 File lengths (MBytes):  RWF=    576 Int=      0 D2E=      0 Chk=     16 Scr=      8
 Normal termination of Gaussian 09 at Mon May 16 18:47:40 2022.
