 Entering Gaussian System, Link 0=g09
 Initial command:
 /gpfs/runtime/opt/gaussian/g09-D01/g09/l1.exe "/gpfs/data/yqi27/cgu13/CHEM1560Q/Gaussian/4427-96-7/inp1/Gau-79294.inp" -scrdir="/gpfs/data/yqi27/cgu13/CHEM1560Q/Gaussian/4427-96-7/inp1/"
 Entering Link 1 = /gpfs/runtime/opt/gaussian/g09-D01/g09/l1.exe PID=     79295.
  
 Copyright (c) 1988,1990,1992,1993,1995,1998,2003,2009,2013,
            Gaussian, Inc.  All Rights Reserved.
  
 This is part of the Gaussian(R) 09 program.  It is based on
 the Gaussian(R) 03 system (copyright 2003, Gaussian, Inc.),
 the Gaussian(R) 98 system (copyright 1998, Gaussian, Inc.),
 the Gaussian(R) 94 system (copyright 1995, Gaussian, Inc.),
 the Gaussian 92(TM) system (copyright 1992, Gaussian, Inc.),
 the Gaussian 90(TM) system (copyright 1990, Gaussian, Inc.),
 the Gaussian 88(TM) system (copyright 1988, Gaussian, Inc.),
 the Gaussian 86(TM) system (copyright 1986, Carnegie Mellon
 University), and the Gaussian 82(TM) system (copyright 1983,
 Carnegie Mellon University). Gaussian is a federally registered
 trademark of Gaussian, Inc.
  
 This software contains proprietary and confidential information,
 including trade secrets, belonging to Gaussian, Inc.
  
 This software is provided under written license and may be
 used, copied, transmitted, or stored only in accord with that
 written license.
  
 The following legend is applicable only to US Government
 contracts under FAR:
  
                    RESTRICTED RIGHTS LEGEND
  
 Use, reproduction and disclosure by the US Government is
 subject to restrictions as set forth in subparagraphs (a)
 and (c) of the Commercial Computer Software - Restricted
 Rights clause in FAR 52.227-19.
  
 Gaussian, Inc.
 340 Quinnipiac St., Bldg. 40, Wallingford CT 06492
  
  
 ---------------------------------------------------------------
 Warning -- This program may not be used in any manner that
 competes with the business of Gaussian, Inc. or will provide
 assistance to any competitor of Gaussian, Inc.  The licensee
 of this program is prohibited from giving any competitor of
 Gaussian, Inc. access to this program.  By using this program,
 the user acknowledges that Gaussian, Inc. is engaged in the
 business of creating and licensing software in the field of
 computational chemistry and represents and warrants to the
 licensee that it is not a competitor of Gaussian, Inc. and that
 it will not use this program in any manner prohibited above.
 ---------------------------------------------------------------
  

 Cite this work as:
 Gaussian 09, Revision D.01,
 M. J. Frisch, G. W. Trucks, H. B. Schlegel, G. E. Scuseria, 
 M. A. Robb, J. R. Cheeseman, G. Scalmani, V. Barone, B. Mennucci, 
 G. A. Petersson, H. Nakatsuji, M. Caricato, X. Li, H. P. Hratchian, 
 A. F. Izmaylov, J. Bloino, G. Zheng, J. L. Sonnenberg, M. Hada, 
 M. Ehara, K. Toyota, R. Fukuda, J. Hasegawa, M. Ishida, T. Nakajima, 
 Y. Honda, O. Kitao, H. Nakai, T. Vreven, J. A. Montgomery, Jr., 
 J. E. Peralta, F. Ogliaro, M. Bearpark, J. J. Heyd, E. Brothers, 
 K. N. Kudin, V. N. Staroverov, T. Keith, R. Kobayashi, J. Normand, 
 K. Raghavachari, A. Rendell, J. C. Burant, S. S. Iyengar, J. Tomasi, 
 M. Cossi, N. Rega, J. M. Millam, M. Klene, J. E. Knox, J. B. Cross, 
 V. Bakken, C. Adamo, J. Jaramillo, R. Gomperts, R. E. Stratmann, 
 O. Yazyev, A. J. Austin, R. Cammi, C. Pomelli, J. W. Ochterski, 
 R. L. Martin, K. Morokuma, V. G. Zakrzewski, G. A. Voth, 
 P. Salvador, J. J. Dannenberg, S. Dapprich, A. D. Daniels, 
 O. Farkas, J. B. Foresman, J. V. Ortiz, J. Cioslowski, 
 and D. J. Fox, Gaussian, Inc., Wallingford CT, 2013.
 
 ******************************************
 Gaussian 09:  EM64L-G09RevD.01 24-Apr-2013
                16-May-2022 
 ******************************************
 %Mem=16GB
 %NProcShared=8
 Will use up to    8 processors via shared memory.
 ----------------------------------------------------------------------
 #P M062X/6-31+G** EmpiricalDispersion=GD3 SCRF(SMD,solvent=DiMethylSul
 foxide) Opt Freq
 ----------------------------------------------------------------------
 1/14=-1,18=20,19=15,26=3,38=1/1,3;
 2/9=110,12=2,17=6,18=5,40=1/2;
 3/5=1,6=6,7=111,11=2,16=1,25=1,30=1,70=32201,71=1,72=21,74=-55,124=31/1,2,3;
 4//1;
 5/5=2,38=5,53=21/2;
 6/7=2,8=2,9=2,10=2,28=1/1;
 7//1,2,3,16;
 1/14=-1,18=20,19=15,26=3/3(2);
 2/9=110/2;
 99//99;
 2/9=110/2;
 3/5=1,6=6,7=111,11=2,16=1,25=1,30=1,70=32205,71=1,72=21,74=-55,124=31/1,2,3;
 4/5=5,16=3,69=1/1;
 5/5=2,38=5,53=21/2;
 7//1,2,3,16;
 1/14=-1,18=20,19=15,26=3/3(-5);
 2/9=110/2;
 6/7=2,8=2,9=2,10=2,19=2,28=1/1;
 99/9=1/99;
 Leave Link    1 at Mon May 16 16:26:35 2022, MaxMem=  2147483648 cpu:         0.9
 (Enter /gpfs/runtime/opt/gaussian/g09-D01/g09/l101.exe)
 ---------
 4427-96-7
 ---------
 Symbolic Z-matrix:
 Charge =  1 Multiplicity = 1
 C                     3.1116    0.4034    0.0615 
 C                     1.8904    0.2228    0.4999 
 C                     0.7805   -0.0914   -0.4698 
 H                     1.1621   -0.1191   -1.4905 
 C                     0.1086   -1.4298   -0.1073 
 O                    -1.2726   -1.0622    0.1778 
 C                    -1.4177    0.2576    0.0189 
 O                    -2.472     0.8342    0.1936 
 O                    -0.2938    0.8864   -0.3519 
 H                     3.907     0.6286    0.7565 
 H                     3.3238    0.3227   -0.9943 
 H                     1.679     0.2991    1.5563 
 H                     0.1544   -2.1211   -0.9489 
 H                     0.5778   -1.867     0.774 
 Li                    6.907    -0.2026   -0.0232 
 
 Add virtual bond connecting atoms Li15       and H10        Dist= 6.06D+00.
 NAtoms=     15 NQM=       15 NQMF=       0 NMMI=      0 NMMIF=      0
                NMic=       0 NMicF=      0.
                    Isotopes and Nuclear Properties:
 (Nuclear quadrupole moments (NQMom) in fm**2, nuclear magnetic moments (NMagM)
  in nuclear magnetons)

  Atom         1           2           3           4           5           6           7           8           9          10
 IAtWgt=          12          12          12           1          12          16          12          16          16           1
 AtmWgt=  12.0000000  12.0000000  12.0000000   1.0078250  12.0000000  15.9949146  12.0000000  15.9949146  15.9949146   1.0078250
 NucSpn=           0           0           0           1           0           0           0           0           0           1
 AtZEff=   0.0000000   0.0000000   0.0000000   0.0000000   0.0000000   0.0000000   0.0000000   0.0000000   0.0000000   0.0000000
 NQMom=    0.0000000   0.0000000   0.0000000   0.0000000   0.0000000   0.0000000   0.0000000   0.0000000   0.0000000   0.0000000
 NMagM=    0.0000000   0.0000000   0.0000000   2.7928460   0.0000000   0.0000000   0.0000000   0.0000000   0.0000000   2.7928460
 AtZNuc=   6.0000000   6.0000000   6.0000000   1.0000000   6.0000000   8.0000000   6.0000000   8.0000000   8.0000000   1.0000000

  Atom        11          12          13          14          15
 IAtWgt=           1           1           1           1           7
 AtmWgt=   1.0078250   1.0078250   1.0078250   1.0078250   7.0160045
 NucSpn=           1           1           1           1           3
 AtZEff=   0.0000000   0.0000000   0.0000000   0.0000000   0.0000000
 NQMom=    0.0000000   0.0000000   0.0000000   0.0000000  -4.0100000
 NMagM=    2.7928460   2.7928460   2.7928460   2.7928460   3.2564240
 AtZNuc=   1.0000000   1.0000000   1.0000000   1.0000000   3.0000000
 Leave Link  101 at Mon May 16 16:26:35 2022, MaxMem=  2147483648 cpu:         2.1
 (Enter /gpfs/runtime/opt/gaussian/g09-D01/g09/l103.exe)

 GradGradGradGradGradGradGradGradGradGradGradGradGradGradGradGradGradGrad
 Berny optimization.
 Initialization pass.
                           ----------------------------
                           !    Initial Parameters    !
                           ! (Angstroms and Degrees)  !
 --------------------------                            --------------------------
 ! Name  Definition              Value          Derivative Info.                !
 --------------------------------------------------------------------------------
 ! R1    R(1,2)                  1.31           estimate D2E/DX2                !
 ! R2    R(1,10)                 1.08           estimate D2E/DX2                !
 ! R3    R(1,11)                 1.0799         estimate D2E/DX2                !
 ! R4    R(2,3)                  1.507          estimate D2E/DX2                !
 ! R5    R(2,12)                 1.08           estimate D2E/DX2                !
 ! R6    R(3,4)                  1.0901         estimate D2E/DX2                !
 ! R7    R(3,5)                  1.5408         estimate D2E/DX2                !
 ! R8    R(3,9)                  1.4574         estimate D2E/DX2                !
 ! R9    R(5,6)                  1.4574         estimate D2E/DX2                !
 ! R10   R(5,13)                 1.0901         estimate D2E/DX2                !
 ! R11   R(5,14)                 1.0899         estimate D2E/DX2                !
 ! R12   R(6,7)                  1.3372         estimate D2E/DX2                !
 ! R13   R(7,8)                  1.2143         estimate D2E/DX2                !
 ! R14   R(7,9)                  1.3402         estimate D2E/DX2                !
 ! R15   R(10,15)                3.2092         estimate D2E/DX2                !
 ! A1    A(2,1,10)             119.9961         estimate D2E/DX2                !
 ! A2    A(2,1,11)             120.0029         estimate D2E/DX2                !
 ! A3    A(10,1,11)            120.0004         estimate D2E/DX2                !
 ! A4    A(1,2,3)              119.999          estimate D2E/DX2                !
 ! A5    A(1,2,12)             120.0033         estimate D2E/DX2                !
 ! A6    A(3,2,12)             119.9977         estimate D2E/DX2                !
 ! A7    A(2,3,4)              110.4876         estimate D2E/DX2                !
 ! A8    A(2,3,5)              110.5416         estimate D2E/DX2                !
 ! A9    A(2,3,9)              110.5461         estimate D2E/DX2                !
 ! A10   A(4,3,5)              110.5409         estimate D2E/DX2                !
 ! A11   A(4,3,9)              110.5389         estimate D2E/DX2                !
 ! A12   A(5,3,9)              104.0224         estimate D2E/DX2                !
 ! A13   A(3,5,6)              103.8976         estimate D2E/DX2                !
 ! A14   A(3,5,13)             110.5423         estimate D2E/DX2                !
 ! A15   A(3,5,14)             110.5443         estimate D2E/DX2                !
 ! A16   A(6,5,13)             110.536          estimate D2E/DX2                !
 ! A17   A(6,5,14)             110.5462         estimate D2E/DX2                !
 ! A18   A(13,5,14)            110.597          estimate D2E/DX2                !
 ! A19   A(5,6,7)              109.1792         estimate D2E/DX2                !
 ! A20   A(6,7,8)              123.077          estimate D2E/DX2                !
 ! A21   A(6,7,9)              113.8887         estimate D2E/DX2                !
 ! A22   A(8,7,9)              123.0342         estimate D2E/DX2                !
 ! A23   A(3,9,7)              109.0119         estimate D2E/DX2                !
 ! A24   A(1,10,15)            118.5627         estimate D2E/DX2                !
 ! D1    D(10,1,2,3)           179.9986         estimate D2E/DX2                !
 ! D2    D(10,1,2,12)           -0.0002         estimate D2E/DX2                !
 ! D3    D(11,1,2,3)            -0.2775         estimate D2E/DX2                !
 ! D4    D(11,1,2,12)          179.7237         estimate D2E/DX2                !
 ! D5    D(2,1,10,15)          153.0432         estimate D2E/DX2                !
 ! D6    D(11,1,10,15)         -26.6807         estimate D2E/DX2                !
 ! D7    D(1,2,3,4)             -0.7015         estimate D2E/DX2                !
 ! D8    D(1,2,3,5)            121.9826         estimate D2E/DX2                !
 ! D9    D(1,2,3,9)           -123.3863         estimate D2E/DX2                !
 ! D10   D(12,2,3,4)           179.2973         estimate D2E/DX2                !
 ! D11   D(12,2,3,5)           -58.0185         estimate D2E/DX2                !
 ! D12   D(12,2,3,9)            56.6125         estimate D2E/DX2                !
 ! D13   D(2,3,5,6)            118.6082         estimate D2E/DX2                !
 ! D14   D(2,3,5,13)          -122.7957         estimate D2E/DX2                !
 ! D15   D(2,3,5,14)            -0.0009         estimate D2E/DX2                !
 ! D16   D(4,3,5,6)           -118.7388         estimate D2E/DX2                !
 ! D17   D(4,3,5,13)            -0.1427         estimate D2E/DX2                !
 ! D18   D(4,3,5,14)           122.6521         estimate D2E/DX2                !
 ! D19   D(9,3,5,6)             -0.0697         estimate D2E/DX2                !
 ! D20   D(9,3,5,13)           118.5264         estimate D2E/DX2                !
 ! D21   D(9,3,5,14)          -118.6788         estimate D2E/DX2                !
 ! D22   D(2,3,9,7)           -118.5507         estimate D2E/DX2                !
 ! D23   D(4,3,9,7)            118.7945         estimate D2E/DX2                !
 ! D24   D(5,3,9,7)              0.1241         estimate D2E/DX2                !
 ! D25   D(3,5,6,7)             -0.0061         estimate D2E/DX2                !
 ! D26   D(13,5,6,7)          -118.6065         estimate D2E/DX2                !
 ! D27   D(14,5,6,7)           118.6017         estimate D2E/DX2                !
 ! D28   D(5,6,7,8)           -179.9616         estimate D2E/DX2                !
 ! D29   D(5,6,7,9)              0.0913         estimate D2E/DX2                !
 ! D30   D(6,7,9,3)             -0.1403         estimate D2E/DX2                !
 ! D31   D(8,7,9,3)            179.9126         estimate D2E/DX2                !
 --------------------------------------------------------------------------------
 Trust Radius=3.00D-01 FncErr=1.00D-07 GrdErr=1.00D-06
 Number of steps in this run=     80 maximum allowed number of steps=    100.
 GradGradGradGradGradGradGradGradGradGradGradGradGradGradGradGradGradGrad

 Leave Link  103 at Mon May 16 16:26:35 2022, MaxMem=  2147483648 cpu:         0.2
 (Enter /gpfs/runtime/opt/gaussian/g09-D01/g09/l202.exe)
                          Input orientation:                          
 ---------------------------------------------------------------------
 Center     Atomic      Atomic             Coordinates (Angstroms)
 Number     Number       Type             X           Y           Z
 ---------------------------------------------------------------------
      1          6           0        3.111600    0.403400    0.061500
      2          6           0        1.890400    0.222800    0.499900
      3          6           0        0.780500   -0.091400   -0.469800
      4          1           0        1.162100   -0.119100   -1.490500
      5          6           0        0.108600   -1.429800   -0.107300
      6          8           0       -1.272600   -1.062200    0.177800
      7          6           0       -1.417700    0.257600    0.018900
      8          8           0       -2.472000    0.834200    0.193600
      9          8           0       -0.293800    0.886400   -0.351900
     10          1           0        3.907000    0.628600    0.756500
     11          1           0        3.323800    0.322700   -0.994300
     12          1           0        1.679000    0.299100    1.556300
     13          1           0        0.154400   -2.121100   -0.948900
     14          1           0        0.577800   -1.867000    0.774000
     15          3           0        6.907000   -0.202600   -0.023200
 ---------------------------------------------------------------------
                    Distance matrix (angstroms):
                    1          2          3          4          5
     1  C    0.000000
     2  C    1.310015   0.000000
     3  C    2.441543   1.506956   0.000000
     4  H    2.546028   2.146860   1.090052   0.000000
     5  C    3.522375   2.504913   1.540834   2.177393   0.000000
     6  O    4.624145   3.429219   2.361580   3.098456   1.457438
     7  C    4.531846   3.343067   2.278752   3.012567   2.278780
     8  O    5.601752   4.415672   3.446098   4.117239   3.446119
     9  O    3.464237   2.436526   1.457434   2.104064   2.363586
    10  H    1.080001   2.072967   3.434707   3.625264   4.405792
    11  H    1.079933   2.072981   2.629630   2.261493   3.767696
    12  H    2.073077   1.080043   2.250527   3.118504   2.867545
    13  H    4.017342   3.256775   2.177434   2.305817   1.090084
    14  H    3.475991   2.483005   2.177356   2.919678   1.089946
    15  Li   3.844408   5.061707   6.143763   5.929909   6.908787
                    6          7          8          9         10
     6  O    0.000000
     7  C    1.337227   0.000000
     8  O    2.243912   1.214305   0.000000
     9  O    2.244031   1.340162   2.246074   0.000000
    10  H    5.479229   5.388332   6.407087   4.352210   0.000000
    11  H    4.941524   4.848983   5.938353   3.717185   1.870561
    12  H    3.530629   3.457582   4.401600   2.806793   2.390028
    13  H    2.104056   3.011038   4.115469   3.098766   4.954921
    14  H    2.104076   3.011000   4.115170   3.099766   4.160757
    15  Li   8.227100   8.337517   9.438623   7.290095   3.209178
                   11         12         13         14         15
    11  H    0.000000
    12  H    3.035043   0.000000
    13  H    4.002414   3.802341   0.000000
    14  H    3.932199   2.552768   1.792266   0.000000
    15  Li   3.749440   5.484388   7.080619   6.592763   0.000000
 Stoichiometry    C5H6LiO3(1+)
 Framework group  C1[X(C5H6LiO3)]
 Deg. of freedom    39
 Full point group                 C1      NOp   1
 Largest Abelian subgroup         C1      NOp   1
 Largest concise Abelian subgroup C1      NOp   1
                         Standard orientation:                         
 ---------------------------------------------------------------------
 Center     Atomic      Atomic             Coordinates (Angstroms)
 Number     Number       Type             X           Y           Z
 ---------------------------------------------------------------------
      1          6           0        2.694552   -0.457539   -0.055197
      2          6           0        1.474808   -0.277136   -0.497713
      3          6           0        0.367288    0.066609    0.464657
      4          1           0        0.749017    0.113574    1.484604
      5          6           0       -0.294272    1.401932    0.072967
      6          8           0       -1.678238    1.038846   -0.204399
      7          6           0       -1.833496   -0.276030   -0.016860
      8          8           0       -2.892187   -0.848172   -0.179227
      9          8           0       -0.714492   -0.905237    0.367800
     10          1           0        3.488246   -0.703914   -0.744943
     11          1           0        2.907291   -0.355523    0.998648
     12          1           0        1.262903   -0.374773   -1.552254
     13          1           0       -0.243217    2.111005    0.899340
     14          1           0        0.178340    1.816235   -0.817524
     15          3           0        6.494494    0.120964    0.017206
 ---------------------------------------------------------------------
 Rotational constants (GHZ):      5.3092702      0.7443971      0.6822770
 Leave Link  202 at Mon May 16 16:26:35 2022, MaxMem=  2147483648 cpu:         0.4
 (Enter /gpfs/runtime/opt/gaussian/g09-D01/g09/l301.exe)
 Standard basis: 6-31+G(d,p) (6D, 7F)
 Ernie: Thresh=  0.10000D-02 Tol=  0.10000D-05 Strict=F.
 There are   201 symmetry adapted cartesian basis functions of A   symmetry.
 There are   201 symmetry adapted basis functions of A   symmetry.
   201 basis functions,   330 primitive gaussians,   201 cartesian basis functions
    31 alpha electrons       31 beta electrons
       nuclear repulsion energy       387.6967484719 Hartrees.
 IExCor= 4336 DFT=T Ex+Corr=M062X ExCW=0 ScaHFX=  0.540000
 ScaDFX=  1.000000  1.000000  1.000000  1.000000 ScalE2=  1.000000  1.000000
 IRadAn=      0 IRanWt=     -1 IRanGd=            0 ICorTp=0 IEmpDi=131
 NAtoms=   15 NActive=   15 NUniq=   15 SFac= 1.00D+00 NAtFMM=   60 NAOKFM=F Big=F
 Integral buffers will be    131072 words long.
 Raffenetti 2 integral format.
 Two-electron integral symmetry is turned on.
 R6Disp:  Grimme-D3 Dispersion energy=       -0.0004194869 Hartrees.
 Nuclear repulsion after empirical dispersion term =      387.6963289850 Hartrees.
 ------------------------------------------------------------------------------
 Polarizable Continuum Model (PCM)
 =================================
 Model                : PCM (using non-symmetric T matrix).
 Atomic radii         : SMD-Coulomb.
 Polarization charges : Total charges.
 Charge compensation  : None.
 Solution method      : On-the-fly selection.
 Cavity type          : VdW (van der Waals Surface) (Alpha=1.000).
 Cavity algorithm     : GePol (No added spheres)
                        Default sphere list used, NSphG=   15.
                        Lebedev-Laikov grids with approx.  5.0 points / Ang**2.
                        Smoothing algorithm: Karplus/York (Gamma=1.0000).
                        Polarization charges: spherical gaussians, with
                                              point-specific exponents (IZeta= 3).
                        Self-potential: point-specific (ISelfS= 7).
                        Self-field    : sphere-specific E.n sum rule (ISelfD= 2).
 1st derivatives      : Analytical E(r).r(x)/FMM algorithm (CHGder, D1EAlg=3).
                        Cavity 1st derivative terms included.
 Solvent              : DiMethylSulfoxide, Eps=  46.826000 Eps(inf)=   2.007889
 ------------------------------------------------------------------------------
 Spheres list:
 ISph  on   Nord     Re0    Alpha      Xe            Ye            Ze
    1   C      1    1.8500  1.000      2.694552     -0.457539     -0.055197
    2   C      2    1.8500  1.000      1.474808     -0.277136     -0.497713
    3   C      3    1.8500  1.000      0.367288      0.066609      0.464657
    4   H      4    1.2000  1.000      0.749017      0.113574      1.484604
    5   C      5    1.8500  1.000     -0.294272      1.401932      0.072967
    6   O      6    2.2940  1.000     -1.678238      1.038846     -0.204399
    7   C      7    1.8500  1.000     -1.833496     -0.276030     -0.016860
    8   O      8    2.2940  1.000     -2.892187     -0.848172     -0.179227
    9   O      9    2.2940  1.000     -0.714492     -0.905237      0.367800
   10   H     10    1.2000  1.000      3.488246     -0.703914     -0.744943
   11   H     11    1.2000  1.000      2.907291     -0.355523      0.998648
   12   H     12    1.2000  1.000      1.262903     -0.374773     -1.552254
   13   H     13    1.2000  1.000     -0.243217      2.111005      0.899340
   14   H     14    1.2000  1.000      0.178340      1.816235     -0.817524
   15  Li     15    1.8200  1.000      6.494494      0.120964      0.017206
 ------------------------------------------------------------------------------
 Separa: There are  2 disjoint cavities,
 GePol: Number of generator spheres                  =      15
 GePol: Total number of spheres                      =      15
 GePol: Number of exposed spheres                    =      15 (100.00%)
 GePol: Number of points                             =    1636
 GePol: Average weight of points                     =       0.13
 GePol: Minimum weight of points                     =   0.74D-08
 GePol: Maximum weight of points                     =    0.17992
 GePol: Number of points with low weight             =      60
 GePol: Fraction of low-weight points (<1% of avg)   =       3.67%
 ------------------------------------------------------------------------------
 Atomic radii for non-electrostatic terms: SMD-CDS.
 ------------------------------------------------------------------------------
 PCM non-electrostatic energy =         0.0009557756 Hartrees.
 Nuclear repulsion after PCM non-electrostatic terms =      387.6972847607 Hartrees.
 Leave Link  301 at Mon May 16 16:26:35 2022, MaxMem=  2147483648 cpu:         0.9
 (Enter /gpfs/runtime/opt/gaussian/g09-D01/g09/l302.exe)
 NPDir=0 NMtPBC=     1 NCelOv=     1 NCel=       1 NClECP=     1 NCelD=      1
         NCelK=      1 NCelE2=     1 NClLst=     1 CellRange=     0.0.
 One-electron integrals computed using PRISM.
 NBasis=   201 RedAO= T EigKep=  2.03D-05  NBF=   201
 NBsUse=   201 1.00D-06 EigRej= -1.00D+00 NBFU=   201
 Precomputing XC quadrature grid using
 IXCGrd= 4 IRadAn=           0 IRanWt=          -1 IRanGd=           0 AccXCQ= 0.00D+00.
 Generated NRdTot=       0 NPtTot=           0 NUsed=           0 NTot=          32
 NSgBfM=   200   200   200   200   200 MxSgAt=    15 MxSgA2=    15.
 Leave Link  302 at Mon May 16 16:26:36 2022, MaxMem=  2147483648 cpu:         2.1
 (Enter /gpfs/runtime/opt/gaussian/g09-D01/g09/l303.exe)
 DipDrv:  MaxL=1.
 Leave Link  303 at Mon May 16 16:26:36 2022, MaxMem=  2147483648 cpu:         0.8
 (Enter /gpfs/runtime/opt/gaussian/g09-D01/g09/l401.exe)
 ExpMin= 7.40D-03 ExpMax= 5.48D+03 ExpMxC= 8.25D+02 IAcc=3 IRadAn=         5 AccDes= 0.00D+00
 Harris functional with IExCor= 1009 and IRadAn=       5 diagonalized for initial guess.
 HarFok:  IExCor= 1009 AccDes= 0.00D+00 IRadAn=         5 IDoV= 1 UseB2=F ITyADJ=14
 ICtDFT=  3500011 ScaDFX=  1.000000  1.000000  1.000000  1.000000
 FoFCou: FMM=F IPFlag=           0 FMFlag=      100000 FMFlg1=           0
         NFxFlg=           0 DoJE=T BraDBF=F KetDBF=T FulRan=T
         wScrn=  0.000000 ICntrl=     500 IOpCl=  0 I1Cent=   200000004 NGrid=           0
         NMat0=    1 NMatS0=      1 NMatT0=    0 NMatD0=    1 NMtDS0=    0 NMtDT0=    0
 Petite list used in FoFCou.
 Harris En= -426.791393275905    
 JPrj=0 DoOrth=F DoCkMO=F.
 Leave Link  401 at Mon May 16 16:26:38 2022, MaxMem=  2147483648 cpu:        10.2
 (Enter /gpfs/runtime/opt/gaussian/g09-D01/g09/l502.exe)
 Closed shell SCF:
 Using DIIS extrapolation, IDIIS=  1040.
 Integral symmetry usage will be decided dynamically.
 Keep R1 ints in memory in canonical form, NReq=212217692.
 IVT=      142861 IEndB=      142861 NGot=  2147483648 MDV=  1941265337
 LenX=  1941265337 LenY=  1941224495
 Requested convergence on RMS density matrix=1.00D-08 within 128 cycles.
 Requested convergence on MAX density matrix=1.00D-06.
 Requested convergence on             energy=1.00D-06.
 No special actions if energy rises.
 FoFCou: FMM=F IPFlag=           0 FMFlag=           0 FMFlg1=           0
         NFxFlg=           0 DoJE=F BraDBF=F KetDBF=F FulRan=T
         wScrn=  0.000000 ICntrl=     600 IOpCl=  0 I1Cent=           0 NGrid=           0
         NMat0=    1 NMatS0=  20301 NMatT0=    0 NMatD0=    1 NMtDS0=    0 NMtDT0=    0
 Symmetry not used in FoFCou.

 Cycle   1  Pass 1  IDiag  1:
 PCMQM: There is more than one cavity, setting IComp=0.
 Inv3:  Mode=1 IEnd=     8029488.
 Iteration    1 A*A^-1 deviation from unit magnitude is 7.11D-15 for   1059.
 Iteration    1 A*A^-1 deviation from orthogonality  is 4.92D-15 for   1282     31.
 Iteration    1 A^-1*A deviation from unit magnitude is 7.33D-15 for   1253.
 Iteration    1 A^-1*A deviation from orthogonality  is 1.61D-12 for   1587   1560.
 E= -426.899651374078    
 DIIS: error= 1.96D-02 at cycle   1 NSaved=   1.
 NSaved= 1 IEnMin= 1 EnMin= -426.899651374078     IErMin= 1 ErrMin= 1.96D-02
 ErrMax= 1.96D-02  0.00D+00 EMaxC= 1.00D-01 BMatC= 2.36D-01 BMatP= 2.36D-01
 IDIUse=3 WtCom= 8.04D-01 WtEn= 1.96D-01
 Coeff-Com:  0.100D+01
 Coeff-En:   0.100D+01
 Coeff:      0.100D+01
 Gap=     0.506 Goal=   None    Shift=    0.000
 GapD=    0.506 DampG=2.000 DampE=0.500 DampFc=1.0000 IDamp=-1.
 RMSDP=6.65D-03 MaxDP=2.93D-01              OVMax= 2.05D-01

 Cycle   2  Pass 1  IDiag  1:
 PCMQM: There is more than one cavity, setting IComp=0.
 E= -426.881818304336     Delta-E=        0.017833069742 Rises=F Damp=F
 DIIS: error= 2.74D-02 at cycle   2 NSaved=   2.
 NSaved= 2 IEnMin= 1 EnMin= -426.899651374078     IErMin= 1 ErrMin= 1.96D-02
 ErrMax= 2.74D-02  0.00D+00 EMaxC= 1.00D-01 BMatC= 2.58D-01 BMatP= 2.36D-01
 IDIUse=3 WtCom= 7.26D-01 WtEn= 2.74D-01
 Coeff-Com:  0.512D+00 0.488D+00
 Coeff-En:   0.525D+00 0.475D+00
 Coeff:      0.516D+00 0.484D+00
 Gap=     0.309 Goal=   None    Shift=    0.000
 RMSDP=3.35D-03 MaxDP=2.01D-01 DE= 1.78D-02 OVMax= 1.17D-01

 Cycle   3  Pass 1  IDiag  1:
 PCMQM: There is more than one cavity, setting IComp=0.
 E= -427.069489571095     Delta-E=       -0.187671266759 Rises=F Damp=F
 DIIS: error= 5.71D-03 at cycle   3 NSaved=   3.
 NSaved= 3 IEnMin= 3 EnMin= -427.069489571095     IErMin= 3 ErrMin= 5.71D-03
 ErrMax= 5.71D-03  0.00D+00 EMaxC= 1.00D-01 BMatC= 1.28D-02 BMatP= 2.36D-01
 IDIUse=3 WtCom= 9.43D-01 WtEn= 5.71D-02
 Coeff-Com:  0.132D+00 0.210D+00 0.657D+00
 Coeff-En:   0.000D+00 0.000D+00 0.100D+01
 Coeff:      0.125D+00 0.198D+00 0.677D+00
 Gap=     0.332 Goal=   None    Shift=    0.000
 RMSDP=7.58D-04 MaxDP=2.88D-02 DE=-1.88D-01 OVMax= 4.23D-02

 Cycle   4  Pass 1  IDiag  1:
 PCMQM: There is more than one cavity, setting IComp=0.
 E= -427.077887019002     Delta-E=       -0.008397447907 Rises=F Damp=F
 DIIS: error= 1.99D-03 at cycle   4 NSaved=   4.
 NSaved= 4 IEnMin= 4 EnMin= -427.077887019002     IErMin= 4 ErrMin= 1.99D-03
 ErrMax= 1.99D-03  0.00D+00 EMaxC= 1.00D-01 BMatC= 1.80D-03 BMatP= 1.28D-02
 IDIUse=3 WtCom= 9.80D-01 WtEn= 1.99D-02
 Coeff-Com:  0.364D-02 0.347D-01 0.315D+00 0.647D+00
 Coeff-En:   0.000D+00 0.000D+00 0.755D-01 0.924D+00
 Coeff:      0.357D-02 0.340D-01 0.310D+00 0.652D+00
 Gap=     0.324 Goal=   None    Shift=    0.000
 RMSDP=2.72D-04 MaxDP=6.76D-03 DE=-8.40D-03 OVMax= 9.42D-03

 Cycle   5  Pass 1  IDiag  1:
 PCMQM: There is more than one cavity, setting IComp=0.
 E= -427.079241696001     Delta-E=       -0.001354676998 Rises=F Damp=F
 DIIS: error= 3.50D-04 at cycle   5 NSaved=   5.
 NSaved= 5 IEnMin= 5 EnMin= -427.079241696001     IErMin= 5 ErrMin= 3.50D-04
 ErrMax= 3.50D-04  0.00D+00 EMaxC= 1.00D-01 BMatC= 6.66D-05 BMatP= 1.80D-03
 IDIUse=3 WtCom= 9.96D-01 WtEn= 3.50D-03
 Coeff-Com: -0.271D-02 0.698D-02 0.111D+00 0.284D+00 0.601D+00
 Coeff-En:   0.000D+00 0.000D+00 0.000D+00 0.000D+00 0.100D+01
 Coeff:     -0.270D-02 0.695D-02 0.110D+00 0.283D+00 0.602D+00
 Gap=     0.323 Goal=   None    Shift=    0.000
 RMSDP=5.14D-05 MaxDP=1.22D-03 DE=-1.35D-03 OVMax= 1.71D-03

 Cycle   6  Pass 1  IDiag  1:
 PCMQM: There is more than one cavity, setting IComp=0.
 E= -427.079291760502     Delta-E=       -0.000050064502 Rises=F Damp=F
 DIIS: error= 8.34D-05 at cycle   6 NSaved=   6.
 NSaved= 6 IEnMin= 6 EnMin= -427.079291760502     IErMin= 6 ErrMin= 8.34D-05
 ErrMax= 8.34D-05  0.00D+00 EMaxC= 1.00D-01 BMatC= 3.78D-06 BMatP= 6.66D-05
 IDIUse=1 WtCom= 1.00D+00 WtEn= 0.00D+00
 Coeff-Com: -0.123D-02-0.735D-03 0.122D-01 0.383D-01 0.212D+00 0.739D+00
 Coeff:     -0.123D-02-0.735D-03 0.122D-01 0.383D-01 0.212D+00 0.739D+00
 Gap=     0.324 Goal=   None    Shift=    0.000
 RMSDP=1.92D-05 MaxDP=9.98D-04 DE=-5.01D-05 OVMax= 4.19D-04

 Cycle   7  Pass 1  IDiag  1:
 PCMQM: There is more than one cavity, setting IComp=0.
 E= -427.079295138220     Delta-E=       -0.000003377717 Rises=F Damp=F
 DIIS: error= 2.55D-05 at cycle   7 NSaved=   7.
 NSaved= 7 IEnMin= 7 EnMin= -427.079295138220     IErMin= 7 ErrMin= 2.55D-05
 ErrMax= 2.55D-05  0.00D+00 EMaxC= 1.00D-01 BMatC= 2.39D-07 BMatP= 3.78D-06
 IDIUse=1 WtCom= 1.00D+00 WtEn= 0.00D+00
 Coeff-Com: -0.444D-05-0.972D-03-0.682D-02-0.195D-01-0.320D-02 0.137D+00
 Coeff-Com:  0.894D+00
 Coeff:     -0.444D-05-0.972D-03-0.682D-02-0.195D-01-0.320D-02 0.137D+00
 Coeff:      0.894D+00
 Gap=     0.323 Goal=   None    Shift=    0.000
 RMSDP=7.10D-06 MaxDP=2.41D-04 DE=-3.38D-06 OVMax= 2.20D-04

 Cycle   8  Pass 1  IDiag  1:
 PCMQM: There is more than one cavity, setting IComp=0.
 E= -427.079295466438     Delta-E=       -0.000000328218 Rises=F Damp=F
 DIIS: error= 7.42D-06 at cycle   8 NSaved=   8.
 NSaved= 8 IEnMin= 8 EnMin= -427.079295466438     IErMin= 8 ErrMin= 7.42D-06
 ErrMax= 7.42D-06  0.00D+00 EMaxC= 1.00D-01 BMatC= 3.15D-08 BMatP= 2.39D-07
 IDIUse=1 WtCom= 1.00D+00 WtEn= 0.00D+00
 Coeff-Com:  0.127D-03-0.243D-03-0.271D-02-0.938D-02-0.196D-01-0.374D-01
 Coeff-Com:  0.239D+00 0.830D+00
 Coeff:      0.127D-03-0.243D-03-0.271D-02-0.938D-02-0.196D-01-0.374D-01
 Coeff:      0.239D+00 0.830D+00
 Gap=     0.323 Goal=   None    Shift=    0.000
 RMSDP=2.06D-06 MaxDP=5.31D-05 DE=-3.28D-07 OVMax= 8.49D-05

 Cycle   9  Pass 1  IDiag  1:
 PCMQM: There is more than one cavity, setting IComp=0.
 E= -427.079295506722     Delta-E=       -0.000000040284 Rises=F Damp=F
 DIIS: error= 1.70D-06 at cycle   9 NSaved=   9.
 NSaved= 9 IEnMin= 9 EnMin= -427.079295506722     IErMin= 9 ErrMin= 1.70D-06
 ErrMax= 1.70D-06  0.00D+00 EMaxC= 1.00D-01 BMatC= 1.91D-09 BMatP= 3.15D-08
 IDIUse=1 WtCom= 1.00D+00 WtEn= 0.00D+00
 Coeff-Com:  0.200D-04 0.297D-04 0.288D-03 0.274D-03-0.226D-02-0.178D-01
 Coeff-Com: -0.455D-01 0.122D+00 0.943D+00
 Coeff:      0.200D-04 0.297D-04 0.288D-03 0.274D-03-0.226D-02-0.178D-01
 Coeff:     -0.455D-01 0.122D+00 0.943D+00
 Gap=     0.323 Goal=   None    Shift=    0.000
 RMSDP=6.84D-07 MaxDP=1.51D-05 DE=-4.03D-08 OVMax= 2.58D-05

 Cycle  10  Pass 1  IDiag  1:
 PCMQM: There is more than one cavity, setting IComp=0.
 E= -427.079295509284     Delta-E=       -0.000000002562 Rises=F Damp=F
 DIIS: error= 8.65D-07 at cycle  10 NSaved=  10.
 NSaved=10 IEnMin=10 EnMin= -427.079295509284     IErMin=10 ErrMin= 8.65D-07
 ErrMax= 8.65D-07  0.00D+00 EMaxC= 1.00D-01 BMatC= 3.99D-10 BMatP= 1.91D-09
 IDIUse=1 WtCom= 1.00D+00 WtEn= 0.00D+00
 Coeff-Com: -0.274D-06 0.293D-04 0.347D-03 0.807D-03 0.478D-03-0.503D-02
 Coeff-Com: -0.355D-01-0.378D-02 0.428D+00 0.614D+00
 Coeff:     -0.274D-06 0.293D-04 0.347D-03 0.807D-03 0.478D-03-0.503D-02
 Coeff:     -0.355D-01-0.378D-02 0.428D+00 0.614D+00
 Gap=     0.323 Goal=   None    Shift=    0.000
 RMSDP=1.81D-07 MaxDP=5.14D-06 DE=-2.56D-09 OVMax= 1.04D-05

 Cycle  11  Pass 1  IDiag  1:
 PCMQM: There is more than one cavity, setting IComp=0.
 E= -427.079295509713     Delta-E=       -0.000000000429 Rises=F Damp=F
 DIIS: error= 2.63D-07 at cycle  11 NSaved=  11.
 NSaved=11 IEnMin=11 EnMin= -427.079295509713     IErMin=11 ErrMin= 2.63D-07
 ErrMax= 2.63D-07  0.00D+00 EMaxC= 1.00D-01 BMatC= 2.30D-11 BMatP= 3.99D-10
 IDIUse=1 WtCom= 1.00D+00 WtEn= 0.00D+00
 Coeff-Com: -0.212D-05 0.476D-05 0.716D-04 0.199D-03 0.389D-03 0.644D-03
 Coeff-Com: -0.525D-02-0.190D-01 0.590D-02 0.179D+00 0.838D+00
 Coeff:     -0.212D-05 0.476D-05 0.716D-04 0.199D-03 0.389D-03 0.644D-03
 Coeff:     -0.525D-02-0.190D-01 0.590D-02 0.179D+00 0.838D+00
 Gap=     0.323 Goal=   None    Shift=    0.000
 RMSDP=6.55D-08 MaxDP=2.37D-06 DE=-4.29D-10 OVMax= 2.30D-06

 Cycle  12  Pass 1  IDiag  1:
 PCMQM: There is more than one cavity, setting IComp=0.
 E= -427.079295509735     Delta-E=       -0.000000000022 Rises=F Damp=F
 DIIS: error= 4.61D-08 at cycle  12 NSaved=  12.
 NSaved=12 IEnMin=12 EnMin= -427.079295509735     IErMin=12 ErrMin= 4.61D-08
 ErrMax= 4.61D-08  0.00D+00 EMaxC= 1.00D-01 BMatC= 1.59D-12 BMatP= 2.30D-11
 IDIUse=1 WtCom= 1.00D+00 WtEn= 0.00D+00
 Coeff-Com: -0.549D-06-0.134D-06 0.648D-05 0.200D-04 0.953D-04 0.448D-03
 Coeff-Com:  0.256D-03-0.535D-02-0.211D-01 0.164D-01 0.248D+00 0.761D+00
 Coeff:     -0.549D-06-0.134D-06 0.648D-05 0.200D-04 0.953D-04 0.448D-03
 Coeff:      0.256D-03-0.535D-02-0.211D-01 0.164D-01 0.248D+00 0.761D+00
 Gap=     0.323 Goal=   None    Shift=    0.000
 RMSDP=1.77D-08 MaxDP=8.65D-07 DE=-2.17D-11 OVMax= 3.15D-07

 Cycle  13  Pass 1  IDiag  1:
 PCMQM: There is more than one cavity, setting IComp=0.
 E= -427.079295509732     Delta-E=        0.000000000003 Rises=F Damp=F
 DIIS: error= 3.85D-08 at cycle  13 NSaved=  13.
 NSaved=13 IEnMin=12 EnMin= -427.079295509735     IErMin=13 ErrMin= 3.85D-08
 ErrMax= 3.85D-08  0.00D+00 EMaxC= 1.00D-01 BMatC= 4.26D-13 BMatP= 1.59D-12
 IDIUse=1 WtCom= 1.00D+00 WtEn= 0.00D+00
 Coeff-Com:  0.332D-07-0.760D-06-0.615D-05-0.180D-04-0.857D-05 0.116D-03
 Coeff-Com:  0.862D-03 0.307D-03-0.112D-01-0.203D-01-0.890D-03 0.375D+00
 Coeff-Com:  0.656D+00
 Coeff:      0.332D-07-0.760D-06-0.615D-05-0.180D-04-0.857D-05 0.116D-03
 Coeff:      0.862D-03 0.307D-03-0.112D-01-0.203D-01-0.890D-03 0.375D+00
 Coeff:      0.656D+00
 Gap=     0.323 Goal=   None    Shift=    0.000
 RMSDP=5.23D-09 MaxDP=1.73D-07 DE= 2.50D-12 OVMax= 1.69D-07

 PCMQM: There is more than one cavity, setting IComp=0.
 Error on total polarization charges =  0.01657
 SCF Done:  E(RM062X) =  -427.079295510     A.U. after   13 cycles
            NFock= 13  Conv=0.52D-08     -V/T= 2.0087
 KE= 4.233927977214D+02 PE=-1.766543363093D+03 EE= 5.283739851011D+02
 SMD-CDS (non-electrostatic) energy       (kcal/mol) =       0.60
 (included in total energy above)
 Leave Link  502 at Mon May 16 16:26:53 2022, MaxMem=  2147483648 cpu:        96.7
 (Enter /gpfs/runtime/opt/gaussian/g09-D01/g09/l601.exe)
 Copying SCF densities to generalized density rwf, IOpCl= 0 IROHF=0.

 **********************************************************************

            Population analysis using the SCF density.

 **********************************************************************

 Orbital symmetries:
       Occupied  (A) (A) (A) (A) (A) (A) (A) (A) (A) (A) (A) (A)
                 (A) (A) (A) (A) (A) (A) (A) (A) (A) (A) (A) (A)
                 (A) (A) (A) (A) (A) (A) (A)
       Virtual   (A) (A) (A) (A) (A) (A) (A) (A) (A) (A) (A) (A)
                 (A) (A) (A) (A) (A) (A) (A) (A) (A) (A) (A) (A)
                 (A) (A) (A) (A) (A) (A) (A) (A) (A) (A) (A) (A)
                 (A) (A) (A) (A) (A) (A) (A) (A) (A) (A) (A) (A)
                 (A) (A) (A) (A) (A) (A) (A) (A) (A) (A) (A) (A)
                 (A) (A) (A) (A) (A) (A) (A) (A) (A) (A) (A) (A)
                 (A) (A) (A) (A) (A) (A) (A) (A) (A) (A) (A) (A)
                 (A) (A) (A) (A) (A) (A) (A) (A) (A) (A) (A) (A)
                 (A) (A) (A) (A) (A) (A) (A) (A) (A) (A) (A) (A)
                 (A) (A) (A) (A) (A) (A) (A) (A) (A) (A) (A) (A)
                 (A) (A) (A) (A) (A) (A) (A) (A) (A) (A) (A) (A)
                 (A) (A) (A) (A) (A) (A) (A) (A) (A) (A) (A) (A)
                 (A) (A) (A) (A) (A) (A) (A) (A) (A) (A) (A) (A)
                 (A) (A) (A) (A) (A) (A) (A) (A) (A) (A) (A) (A)
                 (A) (A)
 The electronic state is 1-A.
 Alpha  occ. eigenvalues --  -19.71258 -19.71244 -19.64072 -10.74065 -10.62903
 Alpha  occ. eigenvalues --  -10.61883 -10.55949 -10.55032  -2.22683  -1.29610
 Alpha  occ. eigenvalues --   -1.18048  -1.15773  -0.92306  -0.84786  -0.76451
 Alpha  occ. eigenvalues --   -0.70427  -0.66734  -0.61412  -0.59769  -0.58884
 Alpha  occ. eigenvalues --   -0.52922  -0.51936  -0.51281  -0.50120  -0.46742
 Alpha  occ. eigenvalues --   -0.44670  -0.43286  -0.38362  -0.38108  -0.37878
 Alpha  occ. eigenvalues --   -0.34034
 Alpha virt. eigenvalues --   -0.01686   0.00304   0.00640   0.00659   0.01746
 Alpha virt. eigenvalues --    0.01885   0.03162   0.04275   0.04377   0.05556
 Alpha virt. eigenvalues --    0.05755   0.06152   0.06346   0.06697   0.07257
 Alpha virt. eigenvalues --    0.07662   0.08120   0.08525   0.09002   0.10575
 Alpha virt. eigenvalues --    0.11609   0.12730   0.13930   0.14353   0.14872
 Alpha virt. eigenvalues --    0.15869   0.16574   0.17014   0.18077   0.18445
 Alpha virt. eigenvalues --    0.19637   0.20218   0.21759   0.23007   0.23915
 Alpha virt. eigenvalues --    0.24511   0.24735   0.25514   0.25693   0.26881
 Alpha virt. eigenvalues --    0.28505   0.29432   0.29706   0.30245   0.30656
 Alpha virt. eigenvalues --    0.31194   0.31424   0.31639   0.34308   0.36034
 Alpha virt. eigenvalues --    0.36212   0.38224   0.40008   0.41037   0.42784
 Alpha virt. eigenvalues --    0.42994   0.45083   0.46680   0.48456   0.51063
 Alpha virt. eigenvalues --    0.51141   0.53577   0.54717   0.56081   0.59516
 Alpha virt. eigenvalues --    0.65825   0.68557   0.69103   0.72599   0.76027
 Alpha virt. eigenvalues --    0.77002   0.79408   0.80779   0.84810   0.88647
 Alpha virt. eigenvalues --    0.89450   0.90535   0.92980   0.98079   0.99455
 Alpha virt. eigenvalues --    1.01334   1.02274   1.05573   1.08946   1.11662
 Alpha virt. eigenvalues --    1.14918   1.17837   1.20637   1.25209   1.26014
 Alpha virt. eigenvalues --    1.28567   1.30478   1.32023   1.34167   1.34929
 Alpha virt. eigenvalues --    1.36021   1.38323   1.39122   1.42344   1.44188
 Alpha virt. eigenvalues --    1.44733   1.48045   1.49924   1.52394   1.53535
 Alpha virt. eigenvalues --    1.61282   1.64958   1.68881   1.72537   1.74904
 Alpha virt. eigenvalues --    1.79769   1.85127   1.86785   1.88488   1.88798
 Alpha virt. eigenvalues --    1.90690   1.91786   1.95849   1.96697   1.98980
 Alpha virt. eigenvalues --    1.99632   2.03283   2.07684   2.09422   2.13705
 Alpha virt. eigenvalues --    2.15804   2.17841   2.20016   2.25320   2.30436
 Alpha virt. eigenvalues --    2.33532   2.40859   2.44310   2.46282   2.51922
 Alpha virt. eigenvalues --    2.52414   2.55275   2.56791   2.61479   2.62530
 Alpha virt. eigenvalues --    2.65121   2.66753   2.70141   2.72014   2.75407
 Alpha virt. eigenvalues --    2.81457   2.83794   2.87946   2.88589   2.91118
 Alpha virt. eigenvalues --    2.93857   2.96668   3.05188   3.11680   3.24384
 Alpha virt. eigenvalues --    3.25962   3.31078   3.33112   3.40748   3.46293
 Alpha virt. eigenvalues --    3.50725   3.69188   4.17603   4.35094   4.43565
 Alpha virt. eigenvalues --    4.48701   4.60210   4.65578   4.66373   4.78519
          Condensed to atoms (all electrons):
               1          2          3          4          5          6
     1  C    5.777998  -0.245729   0.034867   0.023534   0.028279  -0.008602
     2  C   -0.245729   6.199917  -0.059364  -0.085385  -0.058869  -0.015878
     3  C    0.034867  -0.059364   5.770310   0.401304   0.128387  -0.037414
     4  H    0.023534  -0.085385   0.401304   0.480143  -0.016617   0.001932
     5  C    0.028279  -0.058869   0.128387  -0.016617   5.273220   0.157990
     6  O   -0.008602  -0.015878  -0.037414   0.001932   0.157990   8.392948
     7  C   -0.012617   0.076255  -0.196812   0.009826  -0.139282   0.240085
     8  O    0.008291   0.007443  -0.008923  -0.000461   0.009214  -0.114753
     9  O   -0.070951  -0.065451   0.275597  -0.031448  -0.051668  -0.154277
    10  H    0.389094  -0.034861   0.009682   0.000237   0.000502   0.000043
    11  H    0.389053  -0.040588  -0.002702   0.002333   0.010544  -0.000102
    12  H   -0.003739   0.328568  -0.003020   0.002302   0.009629  -0.000515
    13  H    0.005574  -0.004055  -0.034906  -0.005073   0.405201  -0.036295
    14  H   -0.014629   0.047651  -0.129570   0.002933   0.438865  -0.035262
    15  Li   0.002608  -0.004688  -0.001161  -0.000029  -0.000221   0.000116
               7          8          9         10         11         12
     1  C   -0.012617   0.008291  -0.070951   0.389094   0.389053  -0.003739
     2  C    0.076255   0.007443  -0.065451  -0.034861  -0.040588   0.328568
     3  C   -0.196812  -0.008923   0.275597   0.009682  -0.002702  -0.003020
     4  H    0.009826  -0.000461  -0.031448   0.000237   0.002333   0.002302
     5  C   -0.139282   0.009214  -0.051668   0.000502   0.010544   0.009629
     6  O    0.240085  -0.114753  -0.154277   0.000043  -0.000102  -0.000515
     7  C    4.555258   0.481770   0.180424   0.000318   0.000032  -0.003078
     8  O    0.481770   8.300150  -0.106898  -0.000004   0.000001  -0.000073
     9  O    0.180424  -0.106898   8.370477   0.000122   0.000291   0.001821
    10  H    0.000318  -0.000004   0.000122   0.478516  -0.024167  -0.004678
    11  H    0.000032   0.000001   0.000291  -0.024167   0.479778   0.003262
    12  H   -0.003078  -0.000073   0.001821  -0.004678   0.003262   0.463615
    13  H    0.004242  -0.000484   0.003982   0.000005  -0.000041  -0.000014
    14  H    0.017290  -0.000272   0.004531  -0.000027   0.000048   0.001050
    15  Li  -0.000115  -0.000142   0.000136  -0.000098  -0.001101  -0.000182
              13         14         15
     1  C    0.005574  -0.014629   0.002608
     2  C   -0.004055   0.047651  -0.004688
     3  C   -0.034906  -0.129570  -0.001161
     4  H   -0.005073   0.002933  -0.000029
     5  C    0.405201   0.438865  -0.000221
     6  O   -0.036295  -0.035262   0.000116
     7  C    0.004242   0.017290  -0.000115
     8  O   -0.000484  -0.000272  -0.000142
     9  O    0.003982   0.004531   0.000136
    10  H    0.000005  -0.000027  -0.000098
    11  H   -0.000041   0.000048  -0.001101
    12  H   -0.000014   0.001050  -0.000182
    13  H    0.471749  -0.029603   0.000024
    14  H   -0.029603   0.483343  -0.000182
    15  Li   0.000024  -0.000182   2.002159
 Mulliken charges:
               1
     1  C   -0.303031
     2  C   -0.044965
     3  C   -0.146274
     4  H    0.214470
     5  C   -0.195174
     6  O   -0.390014
     7  C    0.786406
     8  O   -0.574859
     9  O   -0.356687
    10  H    0.185315
    11  H    0.183359
    12  H    0.205051
    13  H    0.219695
    14  H    0.213832
    15  Li   1.002877
 Sum of Mulliken charges =   1.00000
 Mulliken charges with hydrogens summed into heavy atoms:
               1
     1  C    0.065644
     2  C    0.160085
     3  C    0.068196
     5  C    0.238353
     6  O   -0.390014
     7  C    0.786406
     8  O   -0.574859
     9  O   -0.356687
    15  Li   1.002877
 Electronic spatial extent (au):  <R**2>=           1308.7020
 Charge=              1.0000 electrons
 Dipole moment (field-independent basis, Debye):
    X=             38.1379    Y=              4.2021    Z=              1.0511  Tot=             38.3831
 Quadrupole moment (field-independent basis, Debye-Ang):
   XX=            141.2003   YY=            -49.4015   ZZ=            -42.6222
   XY=             -0.4452   XZ=             -1.0030   YZ=              1.7803
 Traceless Quadrupole moment (field-independent basis, Debye-Ang):
   XX=            124.8081   YY=            -65.7937   ZZ=            -59.0144
   XY=             -0.4452   XZ=             -1.0030   YZ=              1.7803
 Octapole moment (field-independent basis, Debye-Ang**2):
  XXX=           1407.7021  YYY=             13.5414  ZZZ=              1.5793  XYY=             15.2624
  XXY=             31.4846  XXZ=              9.0085  XZZ=             12.9941  YZZ=              1.6317
  YYZ=              1.4229  XYZ=              0.6051
 Hexadecapole moment (field-independent basis, Debye-Ang**3):
 XXXX=           7361.0519 YYYY=           -237.9660 ZZZZ=            -87.2684 XXXY=            113.6351
 XXXZ=              5.0755 YYYX=              6.4674 YYYZ=              2.7217 ZZZX=              1.9594
 ZZZY=              1.9419 XXYY=           -243.2994 XXZZ=           -182.1279 YYZZ=            -53.6098
 XXYZ=              3.6908 YYXZ=             -1.3974 ZZXY=              0.0928
 N-N= 3.876972847607D+02 E-N=-1.766543364463D+03  KE= 4.233927977214D+02
 No NMR shielding tensors so no spin-rotation constants.
 Leave Link  601 at Mon May 16 16:26:54 2022, MaxMem=  2147483648 cpu:         3.7
 (Enter /gpfs/runtime/opt/gaussian/g09-D01/g09/l701.exe)
 Compute integral first derivatives.
 ... and contract with generalized density number  0.
 R6Disp: Adding Grimme-D3 dispersion energy 1st derivatives to the gradient.
 D1PCM: PCM CHGder 1st derivatives, ID1Alg=3 FixD1E=F DoIter=F DoCFld=F I1PDM=0.
 GePol: Maximum number of non-zero 1st derivatives   =     309
 Leave Link  701 at Mon May 16 16:26:55 2022, MaxMem=  2147483648 cpu:         6.8
 (Enter /gpfs/runtime/opt/gaussian/g09-D01/g09/l702.exe)
 L702 exits ... SP integral derivatives will be done elsewhere.
 Leave Link  702 at Mon May 16 16:26:55 2022, MaxMem=  2147483648 cpu:         0.1
 (Enter /gpfs/runtime/opt/gaussian/g09-D01/g09/l703.exe)
 Compute integral first derivatives, UseDBF=F ICtDFT=           0.
 Integral derivatives from FoFJK, PRISM(SPDF).
 Calling FoFJK, ICntrl=      2127 FMM=F ISym2X=0 I1Cent= 0 IOpClX= 0 NMat=1 NMatS=1 NMatT=0.
 FoFJK:  IHMeth= 1 ICntrl=    2127 DoSepK=F KAlg= 0 I1Cent=   0 FoldK=F
 IRaf=         0 NMat=   1 IRICut=       1 DoRegI=T DoRafI=F ISym2E= 0.
 FoFCou: FMM=F IPFlag=           0 FMFlag=      100000 FMFlg1=         800
         NFxFlg=           0 DoJE=F BraDBF=F KetDBF=F FulRan=T
         wScrn=  0.000000 ICntrl=    2127 IOpCl=  0 I1Cent=           0 NGrid=           0
         NMat0=    1 NMatS0=      1 NMatT0=    0 NMatD0=    1 NMtDS0=    0 NMtDT0=    0
 Symmetry not used in FoFCou.
 Leave Link  703 at Mon May 16 16:26:58 2022, MaxMem=  2147483648 cpu:        20.3
 (Enter /gpfs/runtime/opt/gaussian/g09-D01/g09/l716.exe)
 Dipole        = 1.50046055D+01 1.65322606D+00 4.13540129D-01
 ***** Axes restored to original set *****
 -------------------------------------------------------------------
 Center     Atomic                   Forces (Hartrees/Bohr)
 Number     Number              X              Y              Z
 -------------------------------------------------------------------
      1        6           0.020403376    0.002624334   -0.003629758
      2        6          -0.021794353    0.003777095   -0.008253805
      3        6           0.004378845   -0.002532382    0.016833624
      4        1          -0.002747478    0.006005652   -0.001564600
      5        6          -0.005383838    0.006924527   -0.003395779
      6        8           0.018164245   -0.001911839   -0.004326857
      7        6          -0.025924546    0.014626059    0.003317592
      8        8           0.015107267   -0.008470863   -0.001943146
      9        8           0.006110300   -0.016698073   -0.001695739
     10        1           0.006270719   -0.000068855    0.000089988
     11        1           0.005121280    0.001378989   -0.004771811
     12        1          -0.007532111   -0.001277937    0.005169727
     13        1          -0.005623923   -0.002068964    0.001703527
     14        1          -0.005899613   -0.002364030    0.002411421
     15        3          -0.000650169    0.000056287    0.000055616
 -------------------------------------------------------------------
 Cartesian Forces:  Max     0.025924546 RMS     0.008907093
 Leave Link  716 at Mon May 16 16:26:58 2022, MaxMem=  2147483648 cpu:         0.2
 (Enter /gpfs/runtime/opt/gaussian/g09-D01/g09/l103.exe)

 GradGradGradGradGradGradGradGradGradGradGradGradGradGradGradGradGradGrad
 Berny optimization.
 FormGI is forming the generalized inverse of G from B-inverse, IUseBI=4.
 Internal  Forces:  Max     0.032354615 RMS     0.006023522
 Search for a local minimum.
 Step number   1 out of a maximum of   80
 All quantities printed in internal units (Hartrees-Bohrs-Radians)
 RMS Force = .60235D-02 SwitMx=.10000D-02 MixMth= 1
 Mixed Optimization -- RFO/linear search
 Second derivative matrix not updated -- first step.
 ITU=  0
     Eigenvalues ---    0.00367   0.00518   0.00674   0.00930   0.01714
     Eigenvalues ---    0.01716   0.02309   0.02503   0.03279   0.04641
     Eigenvalues ---    0.05212   0.05744   0.06091   0.07849   0.10668
     Eigenvalues ---    0.10786   0.15443   0.16000   0.16000   0.16000
     Eigenvalues ---    0.20540   0.22000   0.24661   0.25000   0.25000
     Eigenvalues ---    0.27794   0.31658   0.34803   0.34807   0.34819
     Eigenvalues ---    0.35380   0.35989   0.35994   0.36002   0.37096
     Eigenvalues ---    0.53056   0.56192   0.64487   0.97952
 RFO step:  Lambda=-8.66149259D-03 EMin= 3.67103540D-03
 Linear search not attempted -- first point.
 Iteration  1 RMS(Cart)=  0.04828187 RMS(Int)=  0.00136578
 Iteration  2 RMS(Cart)=  0.00166433 RMS(Int)=  0.00062487
 Iteration  3 RMS(Cart)=  0.00000149 RMS(Int)=  0.00062487
 Iteration  4 RMS(Cart)=  0.00000000 RMS(Int)=  0.00062487
 ITry= 1 IFail=0 DXMaxC= 1.77D-01 DCOld= 1.00D+10 DXMaxT= 3.00D-01 DXLimC= 3.00D+00 Rises=F
 Variable       Old X    -DE/DX   Delta X   Delta X   Delta X     New X
                                 (Linear)    (Quad)   (Total)
    R1        2.47557   0.03235   0.00000   0.04951   0.04951   2.52508
    R2        2.04091   0.00422   0.00000   0.01145   0.01145   2.05236
    R3        2.04078   0.00557   0.00000   0.01511   0.01511   2.05589
    R4        2.84773  -0.00462   0.00000  -0.01420  -0.01420   2.83353
    R5        2.04099   0.00644   0.00000   0.01747   0.01747   2.05846
    R6        2.05990   0.00035   0.00000   0.00098   0.00098   2.06088
    R7        2.91175   0.00331   0.00000   0.01310   0.01288   2.92464
    R8        2.75415  -0.00772   0.00000  -0.01919  -0.01920   2.73495
    R9        2.75416  -0.01193   0.00000  -0.03165  -0.03175   2.72241
   R10        2.05996  -0.00024   0.00000  -0.00068  -0.00068   2.05928
   R11        2.05970   0.00036   0.00000   0.00101   0.00101   2.06071
   R12        2.52699  -0.00135   0.00000  -0.00332  -0.00317   2.52383
   R13        2.29470  -0.01742   0.00000  -0.01763  -0.01763   2.27708
   R14        2.53254  -0.00081   0.00000  -0.00189  -0.00169   2.53085
   R15        6.06447  -0.00063   0.00000  -0.03525  -0.03525   6.02922
    A1        2.09433   0.00239   0.00000   0.01415   0.01414   2.10847
    A2        2.09445   0.00325   0.00000   0.01927   0.01926   2.11371
    A3        2.09440  -0.00564   0.00000  -0.03346  -0.03347   2.06093
    A4        2.09438   0.00937   0.00000   0.04099   0.04076   2.13514
    A5        2.09445   0.00204   0.00000   0.01936   0.01911   2.11356
    A6        2.09435  -0.01141   0.00000  -0.06035  -0.06056   2.03380
    A7        1.92837  -0.00294   0.00000  -0.00134  -0.00346   1.92492
    A8        1.92932   0.00864   0.00000   0.05798   0.05745   1.98676
    A9        1.92939  -0.00021   0.00000  -0.00608  -0.00583   1.92357
   A10        1.92930   0.00168   0.00000   0.02602   0.02452   1.95382
   A11        1.92927  -0.00113   0.00000  -0.05131  -0.05105   1.87822
   A12        1.81553  -0.00604   0.00000  -0.02622  -0.02624   1.78929
   A13        1.81335   0.00118   0.00000   0.00557   0.00552   1.81888
   A14        1.92933   0.00462   0.00000   0.04117   0.04051   1.96984
   A15        1.92936   0.00436   0.00000   0.04364   0.04296   1.97232
   A16        1.92922  -0.00417   0.00000  -0.04528  -0.04548   1.88373
   A17        1.92940  -0.00440   0.00000  -0.04603  -0.04597   1.88343
   A18        1.93028  -0.00143   0.00000   0.00107  -0.00195   1.92834
   A19        1.90554   0.00555   0.00000   0.02058   0.02042   1.92596
   A20        2.14810   0.00420   0.00000   0.01671   0.01661   2.16471
   A21        1.98773  -0.00912   0.00000  -0.03620  -0.03606   1.95168
   A22        2.14735   0.00492   0.00000   0.01950   0.01939   2.16675
   A23        1.90262   0.00842   0.00000   0.03625   0.03628   1.93890
   A24        2.06931  -0.00094   0.00000  -0.00362  -0.00362   2.06569
    D1        3.14157   0.00162   0.00000   0.04761   0.04817  -3.09345
    D2        0.00000   0.00059   0.00000   0.00748   0.00701   0.00700
    D3       -0.00484   0.00134   0.00000   0.03908   0.03956   0.03472
    D4        3.13677   0.00031   0.00000  -0.00104  -0.00160   3.13516
    D5        2.67111  -0.00028   0.00000  -0.01636  -0.01628   2.65483
    D6       -0.46567  -0.00002   0.00000  -0.00798  -0.00806  -0.47373
    D7       -0.01224  -0.00369   0.00000  -0.06543  -0.06496  -0.07720
    D8        2.12900   0.00233   0.00000   0.00633   0.00673   2.13573
    D9       -2.15350  -0.00010   0.00000   0.00473   0.00495  -2.14855
   D10        3.12933  -0.00266   0.00000  -0.02531  -0.02556   3.10376
   D11       -1.01261   0.00337   0.00000   0.04646   0.04613  -0.96649
   D12        0.98808   0.00094   0.00000   0.04485   0.04435   1.03242
   D13        2.07010  -0.00094   0.00000  -0.00263  -0.00304   2.06706
   D14       -2.14319  -0.00292   0.00000  -0.03262  -0.03373  -2.17692
   D15       -0.00002   0.00144   0.00000   0.02703   0.02700   0.02699
   D16       -2.07238   0.00239   0.00000   0.05322   0.05403  -2.01836
   D17       -0.00249   0.00042   0.00000   0.02324   0.02333   0.02084
   D18        2.14068   0.00477   0.00000   0.08288   0.08407   2.22476
   D19       -0.00122  -0.00152   0.00000  -0.00909  -0.00887  -0.01009
   D20        2.06868  -0.00349   0.00000  -0.03908  -0.03956   2.02911
   D21       -2.07134   0.00086   0.00000   0.02056   0.02118  -2.05016
   D22       -2.06910  -0.00473   0.00000  -0.04085  -0.04037  -2.10947
   D23        2.07336  -0.00007   0.00000   0.00017   0.00066   2.07402
   D24        0.00217   0.00191   0.00000   0.00950   0.00932   0.01149
   D25       -0.00011   0.00067   0.00000   0.00595   0.00599   0.00589
   D26       -2.07007  -0.00340   0.00000  -0.02348  -0.02216  -2.09224
   D27        2.06999   0.00431   0.00000   0.03791   0.03674   2.10673
   D28       -3.14092  -0.00005   0.00000   0.01143   0.01139  -3.12954
   D29        0.00159   0.00056   0.00000  -0.00011  -0.00032   0.00128
   D30       -0.00245  -0.00164   0.00000  -0.00634  -0.00620  -0.00865
   D31        3.14007  -0.00103   0.00000  -0.01787  -0.01791   3.12215
         Item               Value     Threshold  Converged?
 Maximum Force            0.032355     0.000450     NO 
 RMS     Force            0.006024     0.000300     NO 
 Maximum Displacement     0.177428     0.001800     NO 
 RMS     Displacement     0.048110     0.001200     NO 
 Predicted change in Energy=-4.630973D-03
 Lowest energy point so far.  Saving SCF results.
 GradGradGradGradGradGradGradGradGradGradGradGradGradGradGradGradGradGrad

 Leave Link  103 at Mon May 16 16:27:00 2022, MaxMem=  2147483648 cpu:        12.9
 (Enter /gpfs/runtime/opt/gaussian/g09-D01/g09/l202.exe)
                          Input orientation:                          
 ---------------------------------------------------------------------
 Center     Atomic      Atomic             Coordinates (Angstroms)
 Number     Number       Type             X           Y           Z
 ---------------------------------------------------------------------
      1          6           0        3.158671    0.440535    0.055926
      2          6           0        1.907587    0.239217    0.479868
      3          6           0        0.791316   -0.117044   -0.455729
      4          1           0        1.143474   -0.101829   -1.487765
      5          6           0        0.082795   -1.447778   -0.105908
      6          8           0       -1.278241   -1.062673    0.167422
      7          6           0       -1.427002    0.255974    0.016637
      8          8           0       -2.464249    0.842426    0.195981
      9          8           0       -0.281407    0.848126   -0.344752
     10          1           0        3.957154    0.653887    0.760508
     11          1           0        3.409968    0.383617   -1.001052
     12          1           0        1.657263    0.290379    1.538768
     13          1           0        0.071567   -2.152656   -0.936885
     14          1           0        0.483909   -1.921274    0.790784
     15          3           0        6.933294   -0.189306   -0.021203
 ---------------------------------------------------------------------
                    Distance matrix (angstroms):
                    1          2          3          4          5
     1  C    0.000000
     2  C    1.336214   0.000000
     3  C    2.485369   1.499441   0.000000
     4  H    2.595797   2.138168   1.090571   0.000000
     5  C    3.612884   2.553224   1.547652   2.201396   0.000000
     6  O    4.685964   3.455726   2.359152   3.086676   1.440637
     7  C    4.589554   3.366652   2.298523   2.999766   2.279754
     8  O    5.639004   4.422375   3.456011   4.091733   3.438547
     9  O    3.487236   2.417119   1.447275   2.058927   2.336850
    10  H    1.086061   2.109842   3.477944   3.680031   4.492029
    11  H    1.087931   2.114503   2.721283   2.368448   3.901970
    12  H    2.115559   1.089288   2.212210   3.094787   2.864454
    13  H    4.152171   3.331548   2.212072   2.378727   1.089726
    14  H    3.643146   2.606002   2.214393   2.989514   1.090481
    15  Li   3.827588   5.068771   6.157754   5.973314   6.965649
                    6          7          8          9         10
     6  O    0.000000
     7  C    1.335551   0.000000
     8  O    2.244289   1.204977   0.000000
     9  O    2.215210   1.339266   2.248827   0.000000
    10  H    5.541452   5.449845   6.448926   4.384601   0.000000
    11  H    5.043450   4.944519   6.012472   3.777929   1.864283
    12  H    3.511200   3.439587   4.369748   2.759922   2.455061
    13  H    2.056585   2.992727   4.084637   3.078946   5.084841
    14  H    2.056927   2.998549   4.084540   3.089455   4.323864
    15  Li   8.260004   8.372232   9.456504   7.296086   3.190526
                   11         12         13         14         15
    11  H    0.000000
    12  H    3.087289   0.000000
    13  H    4.193056   3.822527   0.000000
    14  H    4.133403   2.612977   1.791202   0.000000
    15  Li   3.701645   5.522691   7.195590   6.727080   0.000000
 Stoichiometry    C5H6LiO3(1+)
 Framework group  C1[X(C5H6LiO3)]
 Deg. of freedom    39
 Full point group                 C1      NOp   1
 RotChk:  IX=0 Diff= 1.37D-02
 Largest Abelian subgroup         C1      NOp   1
 Largest concise Abelian subgroup C1      NOp   1
                         Standard orientation:                         
 ---------------------------------------------------------------------
 Center     Atomic      Atomic             Coordinates (Angstroms)
 Number     Number       Type             X           Y           Z
 ---------------------------------------------------------------------
      1          6           0        2.739597   -0.475296   -0.049327
      2          6           0        1.488214   -0.286019   -0.477909
      3          6           0        0.372267    0.094951    0.448292
      4          1           0        0.724954    0.107783    1.480180
      5          6           0       -0.336988    1.415455    0.062992
      6          8           0       -1.698001    1.022550   -0.199124
      7          6           0       -1.846133   -0.291600   -0.012670
      8          8           0       -2.883225   -0.883105   -0.175559
      9          8           0       -0.700107   -0.873301    0.364001
     10          1           0        3.537812   -0.707293   -0.748296
     11          1           0        2.991405   -0.389724    1.005596
     12          1           0        1.237376   -0.365889   -1.534909
     13          1           0       -0.348091    2.142534    0.874616
     14          1           0        0.063474    1.864700   -0.846380
     15          3           0        6.513994    0.157930    0.008796
 ---------------------------------------------------------------------
 Rotational constants (GHZ):      5.2974172      0.7375916      0.6753271
 Leave Link  202 at Mon May 16 16:27:00 2022, MaxMem=  2147483648 cpu:         0.3
 (Enter /gpfs/runtime/opt/gaussian/g09-D01/g09/l301.exe)
 Standard basis: 6-31+G(d,p) (6D, 7F)
 Ernie: Thresh=  0.10000D-02 Tol=  0.10000D-05 Strict=F.
 There are   201 symmetry adapted cartesian basis functions of A   symmetry.
 There are   201 symmetry adapted basis functions of A   symmetry.
   201 basis functions,   330 primitive gaussians,   201 cartesian basis functions
    31 alpha electrons       31 beta electrons
       nuclear repulsion energy       387.1498601039 Hartrees.
 IExCor= 4336 DFT=T Ex+Corr=M062X ExCW=0 ScaHFX=  0.540000
 ScaDFX=  1.000000  1.000000  1.000000  1.000000 ScalE2=  1.000000  1.000000
 IRadAn=      0 IRanWt=     -1 IRanGd=            0 ICorTp=0 IEmpDi=131
 NAtoms=   15 NActive=   15 NUniq=   15 SFac= 1.00D+00 NAtFMM=   60 NAOKFM=F Big=F
 Integral buffers will be    131072 words long.
 Raffenetti 2 integral format.
 Two-electron integral symmetry is turned on.
 R6Disp:  Grimme-D3 Dispersion energy=       -0.0004202777 Hartrees.
 Nuclear repulsion after empirical dispersion term =      387.1494398262 Hartrees.
 ------------------------------------------------------------------------------
 Polarizable Continuum Model (PCM)
 =================================
 Model                : PCM (using non-symmetric T matrix).
 Atomic radii         : SMD-Coulomb.
 Polarization charges : Total charges.
 Charge compensation  : None.
 Solution method      : On-the-fly selection.
 Cavity type          : VdW (van der Waals Surface) (Alpha=1.000).
 Cavity algorithm     : GePol (No added spheres)
                        Default sphere list used, NSphG=   15.
                        Lebedev-Laikov grids with approx.  5.0 points / Ang**2.
                        Smoothing algorithm: Karplus/York (Gamma=1.0000).
                        Polarization charges: spherical gaussians, with
                                              point-specific exponents (IZeta= 3).
                        Self-potential: point-specific (ISelfS= 7).
                        Self-field    : sphere-specific E.n sum rule (ISelfD= 2).
 1st derivatives      : Analytical E(r).r(x)/FMM algorithm (CHGder, D1EAlg=3).
                        Cavity 1st derivative terms included.
 Solvent              : DiMethylSulfoxide, Eps=  46.826000 Eps(inf)=   2.007889
 ------------------------------------------------------------------------------
 Spheres list:
 ISph  on   Nord     Re0    Alpha      Xe            Ye            Ze
    1   C      1    1.8500  1.000      2.739597     -0.475296     -0.049327
    2   C      2    1.8500  1.000      1.488214     -0.286019     -0.477909
    3   C      3    1.8500  1.000      0.372267      0.094951      0.448292
    4   H      4    1.2000  1.000      0.724954      0.107783      1.480180
    5   C      5    1.8500  1.000     -0.336988      1.415455      0.062992
    6   O      6    2.2940  1.000     -1.698001      1.022550     -0.199124
    7   C      7    1.8500  1.000     -1.846133     -0.291600     -0.012670
    8   O      8    2.2940  1.000     -2.883225     -0.883105     -0.175559
    9   O      9    2.2940  1.000     -0.700107     -0.873301      0.364001
   10   H     10    1.2000  1.000      3.537812     -0.707293     -0.748296
   11   H     11    1.2000  1.000      2.991405     -0.389724      1.005596
   12   H     12    1.2000  1.000      1.237376     -0.365889     -1.534909
   13   H     13    1.2000  1.000     -0.348091      2.142534      0.874616
   14   H     14    1.2000  1.000      0.063474      1.864700     -0.846380
   15  Li     15    1.8200  1.000      6.513994      0.157930      0.008796
 ------------------------------------------------------------------------------
 Separa: There are  2 disjoint cavities,
 GePol: Number of generator spheres                  =      15
 GePol: Total number of spheres                      =      15
 GePol: Number of exposed spheres                    =      15 (100.00%)
 GePol: Number of points                             =    1640
 GePol: Average weight of points                     =       0.13
 GePol: Minimum weight of points                     =   0.24D-08
 GePol: Maximum weight of points                     =    0.17992
 GePol: Number of points with low weight             =      55
 GePol: Fraction of low-weight points (<1% of avg)   =       3.35%
 ------------------------------------------------------------------------------
 Atomic radii for non-electrostatic terms: SMD-CDS.
 ------------------------------------------------------------------------------
 PCM non-electrostatic energy =         0.0010223741 Hartrees.
 Nuclear repulsion after PCM non-electrostatic terms =      387.1504622003 Hartrees.
 Leave Link  301 at Mon May 16 16:27:00 2022, MaxMem=  2147483648 cpu:         0.3
 (Enter /gpfs/runtime/opt/gaussian/g09-D01/g09/l302.exe)
 NPDir=0 NMtPBC=     1 NCelOv=     1 NCel=       1 NClECP=     1 NCelD=      1
         NCelK=      1 NCelE2=     1 NClLst=     1 CellRange=     0.0.
 One-electron integrals computed using PRISM.
 NBasis=   201 RedAO= T EigKep=  2.24D-05  NBF=   201
 NBsUse=   201 1.00D-06 EigRej= -1.00D+00 NBFU=   201
 Precomputing XC quadrature grid using
 IXCGrd= 4 IRadAn=           0 IRanWt=          -1 IRanGd=           0 AccXCQ= 0.00D+00.
 Generated NRdTot=       0 NPtTot=           0 NUsed=           0 NTot=          32
 NSgBfM=   201   201   201   201   201 MxSgAt=    15 MxSgA2=    15.
 Leave Link  302 at Mon May 16 16:27:01 2022, MaxMem=  2147483648 cpu:         6.2
 (Enter /gpfs/runtime/opt/gaussian/g09-D01/g09/l303.exe)
 DipDrv:  MaxL=1.
 Leave Link  303 at Mon May 16 16:27:01 2022, MaxMem=  2147483648 cpu:         0.8
 (Enter /gpfs/runtime/opt/gaussian/g09-D01/g09/l401.exe)
 Initial guess from the checkpoint file:  "/gpfs/data/yqi27/cgu13/CHEM1560Q/Gaussian/4427-96-7/inp1/Gau-79295.chk"
 B after Tr=     0.000000    0.000000    0.000000
         Rot=    0.999986    0.003954   -0.000178   -0.003543 Ang=   0.61 deg.
 Guess basis will be translated and rotated to current coordinates.
 JPrj=2 DoOrth=T DoCkMO=T.
 Generating alternative initial guess.
 ExpMin= 7.40D-03 ExpMax= 5.48D+03 ExpMxC= 8.25D+02 IAcc=3 IRadAn=         5 AccDes= 0.00D+00
 Harris functional with IExCor= 1009 and IRadAn=       5 diagonalized for initial guess.
 HarFok:  IExCor= 1009 AccDes= 0.00D+00 IRadAn=         5 IDoV= 1 UseB2=F ITyADJ=14
 ICtDFT=  3500011 ScaDFX=  1.000000  1.000000  1.000000  1.000000
 FoFCou: FMM=F IPFlag=           0 FMFlag=      100000 FMFlg1=           0
         NFxFlg=           0 DoJE=T BraDBF=F KetDBF=T FulRan=T
         wScrn=  0.000000 ICntrl=     500 IOpCl=  0 I1Cent=   200000004 NGrid=           0
         NMat0=    1 NMatS0=      1 NMatT0=    0 NMatD0=    1 NMtDS0=    0 NMtDT0=    0
 Petite list used in FoFCou.
 Harris En= -426.788323264148    
 Leave Link  401 at Mon May 16 16:27:02 2022, MaxMem=  2147483648 cpu:         8.9
 (Enter /gpfs/runtime/opt/gaussian/g09-D01/g09/l502.exe)
 Closed shell SCF:
 Using DIIS extrapolation, IDIIS=  1040.
 Integral symmetry usage will be decided dynamically.
 Keep R1 ints in memory in canonical form, NReq=212230840.
 IVT=      142861 IEndB=      142861 NGot=  2147483648 MDV=  1941265337
 LenX=  1941265337 LenY=  1941224495
 Requested convergence on RMS density matrix=1.00D-08 within 128 cycles.
 Requested convergence on MAX density matrix=1.00D-06.
 Requested convergence on             energy=1.00D-06.
 No special actions if energy rises.
 FoFCou: FMM=F IPFlag=           0 FMFlag=           0 FMFlg1=           0
         NFxFlg=           0 DoJE=F BraDBF=F KetDBF=F FulRan=T
         wScrn=  0.000000 ICntrl=     600 IOpCl=  0 I1Cent=           0 NGrid=           0
         NMat0=    1 NMatS0=  20301 NMatT0=    0 NMatD0=    1 NMtDS0=    0 NMtDT0=    0
 Symmetry not used in FoFCou.

 Cycle   1  Pass 1  IDiag  1:
 PCMQM: There is more than one cavity, setting IComp=0.
 Inv3:  Mode=1 IEnd=     8068800.
 Iteration    1 A*A^-1 deviation from unit magnitude is 7.88D-15 for    576.
 Iteration    1 A*A^-1 deviation from orthogonality  is 4.94D-15 for    739    139.
 Iteration    1 A^-1*A deviation from unit magnitude is 7.33D-15 for    379.
 Iteration    1 A^-1*A deviation from orthogonality  is 7.04D-10 for    933    913.
 Iteration    2 A*A^-1 deviation from unit magnitude is 9.33D-15 for     47.
 Iteration    2 A*A^-1 deviation from orthogonality  is 6.72D-15 for    818    271.
 Iteration    2 A^-1*A deviation from unit magnitude is 1.89D-15 for    301.
 Iteration    2 A^-1*A deviation from orthogonality  is 5.53D-16 for   1610   1440.
 E= -427.080868722999    
 DIIS: error= 1.31D-03 at cycle   1 NSaved=   1.
 NSaved= 1 IEnMin= 1 EnMin= -427.080868722999     IErMin= 1 ErrMin= 1.31D-03
 ErrMax= 1.31D-03  0.00D+00 EMaxC= 1.00D-01 BMatC= 1.68D-03 BMatP= 1.68D-03
 IDIUse=3 WtCom= 9.87D-01 WtEn= 1.31D-02
 Coeff-Com:  0.100D+01
 Coeff-En:   0.100D+01
 Coeff:      0.100D+01
 Gap=     0.672 Goal=   None    Shift=    0.000
 GapD=    0.672 DampG=2.000 DampE=1.000 DampFc=2.0000 IDamp=-1.
 RMSDP=1.22D-03 MaxDP=5.11D-02              OVMax= 9.87D-03

 Cycle   2  Pass 1  IDiag  1:
 PCMQM: There is more than one cavity, setting IComp=0.
 E= -427.083282899662     Delta-E=       -0.002414176663 Rises=F Damp=F
 DIIS: error= 3.33D-04 at cycle   2 NSaved=   2.
 NSaved= 2 IEnMin= 2 EnMin= -427.083282899662     IErMin= 2 ErrMin= 3.33D-04
 ErrMax= 3.33D-04  0.00D+00 EMaxC= 1.00D-01 BMatC= 1.15D-04 BMatP= 1.68D-03
 IDIUse=3 WtCom= 9.97D-01 WtEn= 3.33D-03
 Coeff-Com:  0.122D-01 0.988D+00
 Coeff-En:   0.000D+00 0.100D+01
 Coeff:      0.122D-01 0.988D+00
 Gap=     0.322 Goal=   None    Shift=    0.000
 RMSDP=1.84D-04 MaxDP=6.31D-03 DE=-2.41D-03 OVMax= 3.86D-03

 Cycle   3  Pass 1  IDiag  1:
 PCMQM: There is more than one cavity, setting IComp=0.
 E= -427.083372951058     Delta-E=       -0.000090051396 Rises=F Damp=F
 DIIS: error= 4.05D-04 at cycle   3 NSaved=   3.
 NSaved= 3 IEnMin= 3 EnMin= -427.083372951058     IErMin= 2 ErrMin= 3.33D-04
 ErrMax= 4.05D-04  0.00D+00 EMaxC= 1.00D-01 BMatC= 7.94D-05 BMatP= 1.15D-04
 IDIUse=3 WtCom= 9.96D-01 WtEn= 4.05D-03
 Coeff-Com: -0.584D-01 0.468D+00 0.590D+00
 Coeff-En:   0.000D+00 0.670D-01 0.933D+00
 Coeff:     -0.581D-01 0.467D+00 0.592D+00
 Gap=     0.320 Goal=   None    Shift=    0.000
 RMSDP=6.32D-05 MaxDP=2.66D-03 DE=-9.01D-05 OVMax= 2.32D-03

 Cycle   4  Pass 1  IDiag  1:
 PCMQM: There is more than one cavity, setting IComp=0.
 E= -427.083434827003     Delta-E=       -0.000061875946 Rises=F Damp=F
 DIIS: error= 1.38D-04 at cycle   4 NSaved=   4.
 NSaved= 4 IEnMin= 4 EnMin= -427.083434827003     IErMin= 4 ErrMin= 1.38D-04
 ErrMax= 1.38D-04  0.00D+00 EMaxC= 1.00D-01 BMatC= 7.01D-06 BMatP= 7.94D-05
 IDIUse=3 WtCom= 9.99D-01 WtEn= 1.38D-03
 Coeff-Com: -0.262D-01 0.112D+00 0.272D+00 0.643D+00
 Coeff-En:   0.000D+00 0.000D+00 0.000D+00 0.100D+01
 Coeff:     -0.262D-01 0.112D+00 0.271D+00 0.643D+00
 Gap=     0.320 Goal=   None    Shift=    0.000
 RMSDP=2.02D-05 MaxDP=9.03D-04 DE=-6.19D-05 OVMax= 7.35D-04

 Cycle   5  Pass 1  IDiag  1:
 PCMQM: There is more than one cavity, setting IComp=0.
 E= -427.083440058170     Delta-E=       -0.000005231167 Rises=F Damp=F
 DIIS: error= 3.38D-05 at cycle   5 NSaved=   5.
 NSaved= 5 IEnMin= 5 EnMin= -427.083440058170     IErMin= 5 ErrMin= 3.38D-05
 ErrMax= 3.38D-05  0.00D+00 EMaxC= 1.00D-01 BMatC= 6.37D-07 BMatP= 7.01D-06
 IDIUse=1 WtCom= 1.00D+00 WtEn= 0.00D+00
 Coeff-Com: -0.329D-02-0.141D-01 0.375D-01 0.268D+00 0.712D+00
 Coeff:     -0.329D-02-0.141D-01 0.375D-01 0.268D+00 0.712D+00
 Gap=     0.320 Goal=   None    Shift=    0.000
 RMSDP=1.04D-05 MaxDP=7.62D-04 DE=-5.23D-06 OVMax= 2.29D-04

 Cycle   6  Pass 1  IDiag  1:
 PCMQM: There is more than one cavity, setting IComp=0.
 E= -427.083440719240     Delta-E=       -0.000000661070 Rises=F Damp=F
 DIIS: error= 8.89D-06 at cycle   6 NSaved=   6.
 NSaved= 6 IEnMin= 6 EnMin= -427.083440719240     IErMin= 6 ErrMin= 8.89D-06
 ErrMax= 8.89D-06  0.00D+00 EMaxC= 1.00D-01 BMatC= 3.72D-08 BMatP= 6.37D-07
 IDIUse=1 WtCom= 1.00D+00 WtEn= 0.00D+00
 Coeff-Com:  0.132D-02-0.152D-01-0.133D-01 0.266D-01 0.219D+00 0.781D+00
 Coeff:      0.132D-02-0.152D-01-0.133D-01 0.266D-01 0.219D+00 0.781D+00
 Gap=     0.320 Goal=   None    Shift=    0.000
 RMSDP=2.99D-06 MaxDP=2.18D-04 DE=-6.61D-07 OVMax= 7.56D-05

 Cycle   7  Pass 1  IDiag  1:
 PCMQM: There is more than one cavity, setting IComp=0.
 E= -427.083440758869     Delta-E=       -0.000000039629 Rises=F Damp=F
 DIIS: error= 4.88D-06 at cycle   7 NSaved=   7.
 NSaved= 7 IEnMin= 7 EnMin= -427.083440758869     IErMin= 7 ErrMin= 4.88D-06
 ErrMax= 4.88D-06  0.00D+00 EMaxC= 1.00D-01 BMatC= 9.05D-09 BMatP= 3.72D-08
 IDIUse=1 WtCom= 1.00D+00 WtEn= 0.00D+00
 Coeff-Com:  0.948D-03-0.588D-02-0.105D-01-0.145D-01 0.351D-01 0.386D+00
 Coeff-Com:  0.609D+00
 Coeff:      0.948D-03-0.588D-02-0.105D-01-0.145D-01 0.351D-01 0.386D+00
 Coeff:      0.609D+00
 Gap=     0.320 Goal=   None    Shift=    0.000
 RMSDP=8.48D-07 MaxDP=4.00D-05 DE=-3.96D-08 OVMax= 2.81D-05

 Cycle   8  Pass 1  IDiag  1:
 PCMQM: There is more than one cavity, setting IComp=0.
 E= -427.083440767957     Delta-E=       -0.000000009087 Rises=F Damp=F
 DIIS: error= 7.53D-07 at cycle   8 NSaved=   8.
 NSaved= 8 IEnMin= 8 EnMin= -427.083440767957     IErMin= 8 ErrMin= 7.53D-07
 ErrMax= 7.53D-07  0.00D+00 EMaxC= 1.00D-01 BMatC= 3.45D-10 BMatP= 9.05D-09
 IDIUse=1 WtCom= 1.00D+00 WtEn= 0.00D+00
 Coeff-Com:  0.295D-04 0.744D-03-0.504D-03-0.618D-02-0.189D-01-0.216D-01
 Coeff-Com:  0.115D+00 0.932D+00
 Coeff:      0.295D-04 0.744D-03-0.504D-03-0.618D-02-0.189D-01-0.216D-01
 Coeff:      0.115D+00 0.932D+00
 Gap=     0.320 Goal=   None    Shift=    0.000
 RMSDP=2.92D-07 MaxDP=1.12D-05 DE=-9.09D-09 OVMax= 1.21D-05

 Cycle   9  Pass 1  IDiag  1:
 PCMQM: There is more than one cavity, setting IComp=0.
 E= -427.083440768559     Delta-E=       -0.000000000602 Rises=F Damp=F
 DIIS: error= 4.36D-07 at cycle   9 NSaved=   9.
 NSaved= 9 IEnMin= 9 EnMin= -427.083440768559     IErMin= 9 ErrMin= 4.36D-07
 ErrMax= 4.36D-07  0.00D+00 EMaxC= 1.00D-01 BMatC= 9.93D-11 BMatP= 3.45D-10
 IDIUse=1 WtCom= 1.00D+00 WtEn= 0.00D+00
 Coeff-Com: -0.816D-04 0.948D-03 0.829D-03-0.149D-02-0.122D-01-0.488D-01
 Coeff-Com: -0.591D-02 0.431D+00 0.636D+00
 Coeff:     -0.816D-04 0.948D-03 0.829D-03-0.149D-02-0.122D-01-0.488D-01
 Coeff:     -0.591D-02 0.431D+00 0.636D+00
 Gap=     0.320 Goal=   None    Shift=    0.000
 RMSDP=1.00D-07 MaxDP=2.99D-06 DE=-6.02D-10 OVMax= 3.84D-06

 Cycle  10  Pass 1  IDiag  1:
 PCMQM: There is more than one cavity, setting IComp=0.
 E= -427.083440768673     Delta-E=       -0.000000000114 Rises=F Damp=F
 DIIS: error= 1.26D-07 at cycle  10 NSaved=  10.
 NSaved=10 IEnMin=10 EnMin= -427.083440768673     IErMin=10 ErrMin= 1.26D-07
 ErrMax= 1.26D-07  0.00D+00 EMaxC= 1.00D-01 BMatC= 8.00D-12 BMatP= 9.93D-11
 IDIUse=1 WtCom= 1.00D+00 WtEn= 0.00D+00
 Coeff-Com: -0.293D-04 0.172D-03 0.333D-03 0.490D-03-0.774D-03-0.113D-01
 Coeff-Com: -0.188D-01-0.161D-01 0.194D+00 0.852D+00
 Coeff:     -0.293D-04 0.172D-03 0.333D-03 0.490D-03-0.774D-03-0.113D-01
 Coeff:     -0.188D-01-0.161D-01 0.194D+00 0.852D+00
 Gap=     0.320 Goal=   None    Shift=    0.000
 RMSDP=3.91D-08 MaxDP=1.39D-06 DE=-1.14D-10 OVMax= 1.99D-06

 Cycle  11  Pass 1  IDiag  1:
 PCMQM: There is more than one cavity, setting IComp=0.
 E= -427.083440768695     Delta-E=       -0.000000000022 Rises=F Damp=F
 DIIS: error= 4.23D-08 at cycle  11 NSaved=  11.
 NSaved=11 IEnMin=11 EnMin= -427.083440768695     IErMin=11 ErrMin= 4.23D-08
 ErrMax= 4.23D-08  0.00D+00 EMaxC= 1.00D-01 BMatC= 1.14D-12 BMatP= 8.00D-12
 IDIUse=1 WtCom= 1.00D+00 WtEn= 0.00D+00
 Coeff-Com: -0.249D-06-0.535D-04 0.157D-04 0.340D-03 0.116D-02 0.205D-02
 Coeff-Com: -0.577D-02-0.571D-01-0.810D-02 0.305D+00 0.762D+00
 Coeff:     -0.249D-06-0.535D-04 0.157D-04 0.340D-03 0.116D-02 0.205D-02
 Coeff:     -0.577D-02-0.571D-01-0.810D-02 0.305D+00 0.762D+00
 Gap=     0.320 Goal=   None    Shift=    0.000
 RMSDP=1.13D-08 MaxDP=2.82D-07 DE=-2.24D-11 OVMax= 7.31D-07

 Cycle  12  Pass 1  IDiag  1:
 PCMQM: There is more than one cavity, setting IComp=0.
 E= -427.083440768700     Delta-E=       -0.000000000005 Rises=F Damp=F
 DIIS: error= 1.20D-08 at cycle  12 NSaved=  12.
 NSaved=12 IEnMin=12 EnMin= -427.083440768700     IErMin=12 ErrMin= 1.20D-08
 ErrMax= 1.20D-08  0.00D+00 EMaxC= 1.00D-01 BMatC= 9.97D-14 BMatP= 1.14D-12
 IDIUse=1 WtCom= 1.00D+00 WtEn= 0.00D+00
 Coeff-Com:  0.383D-05-0.380D-04-0.395D-04 0.291D-04 0.420D-03 0.213D-02
 Coeff-Com:  0.819D-03-0.140D-01-0.283D-01-0.322D-01 0.198D+00 0.873D+00
 Coeff:      0.383D-05-0.380D-04-0.395D-04 0.291D-04 0.420D-03 0.213D-02
 Coeff:      0.819D-03-0.140D-01-0.283D-01-0.322D-01 0.198D+00 0.873D+00
 Gap=     0.320 Goal=   None    Shift=    0.000
 RMSDP=4.20D-09 MaxDP=1.13D-07 DE=-5.00D-12 OVMax= 2.71D-07

 PCMQM: There is more than one cavity, setting IComp=0.
 Error on total polarization charges =  0.01702
[...]
 ! A12   A(5,3,9)              101.6091         -DE/DX =   -0.0006              !
 ! A13   A(3,5,6)              102.6587         -DE/DX =   -0.0008              !
 ! A14   A(3,5,13)             113.0106         -DE/DX =    0.0002              !
 ! A15   A(3,5,14)             112.4494         -DE/DX =    0.0002              !
 ! A16   A(6,5,13)             108.9439         -DE/DX =    0.0003              !
 ! A17   A(6,5,14)             108.6941         -DE/DX =    0.0                 !
 ! A18   A(13,5,14)            110.6675         -DE/DX =    0.0                 !
 ! A19   A(5,6,7)              109.2085         -DE/DX =   -0.0006              !
 ! A20   A(6,7,8)              124.5996         -DE/DX =   -0.0013              !
 ! A21   A(6,7,9)              111.1383         -DE/DX =    0.0027              !
 ! A22   A(8,7,9)              124.2619         -DE/DX =   -0.0013              !
 ! A23   A(3,9,7)              109.5805         -DE/DX =   -0.0008              !
 ! A24   A(1,10,15)             70.7112         -DE/DX =   -0.0001              !
 ! D1    D(10,1,2,3)           176.3772         -DE/DX =    0.0006              !
 ! D2    D(10,1,2,12)           -1.1742         -DE/DX =    0.0004              !
 ! D3    D(11,1,2,3)             0.9956         -DE/DX =   -0.0004              !
 ! D4    D(11,1,2,12)         -176.5559         -DE/DX =   -0.0006              !
 ! D5    D(2,1,10,15)           75.3925         -DE/DX =    0.0004              !
 ! D6    D(11,1,10,15)        -109.0634         -DE/DX =    0.0013              !
 ! D7    D(1,2,3,4)            -10.7965         -DE/DX =    0.0003              !
 ! D8    D(1,2,3,5)            117.3027         -DE/DX =    0.0006              !
 ! D9    D(1,2,3,9)           -129.296          -DE/DX =    0.0002              !
 ! D10   D(12,2,3,4)           166.8752         -DE/DX =    0.0005              !
 ! D11   D(12,2,3,5)           -65.0255         -DE/DX =    0.0008              !
 ! D12   D(12,2,3,9)            48.3757         -DE/DX =    0.0003              !
 ! D13   D(2,3,5,6)            140.8358         -DE/DX =   -0.0001              !
 ! D14   D(2,3,5,13)          -101.9783         -DE/DX =   -0.0002              !
 ! D15   D(2,3,5,14)            24.2051         -DE/DX =    0.0002              !
 ! D16   D(4,3,5,6)            -91.5723         -DE/DX =    0.0001              !
 ! D17   D(4,3,5,13)            25.6137         -DE/DX =    0.0001              !
 ! D18   D(4,3,5,14)           151.797          -DE/DX =    0.0005              !
 ! D19   D(9,3,5,6)             23.2494         -DE/DX =   -0.0002              !
 ! D20   D(9,3,5,13)           140.4354         -DE/DX =   -0.0002              !
 ! D21   D(9,3,5,14)           -93.3813         -DE/DX =    0.0001              !
 ! D22   D(2,3,9,7)           -141.2536         -DE/DX =   -0.0001              !
 ! D23   D(4,3,9,7)             98.4828         -DE/DX =   -0.0004              !
 ! D24   D(5,3,9,7)            -19.1545         -DE/DX =   -0.0002              !
 ! D25   D(3,5,6,7)            -20.6745         -DE/DX =    0.0002              !
 ! D26   D(13,5,6,7)          -140.719          -DE/DX =    0.0002              !
 ! D27   D(14,5,6,7)            98.612          -DE/DX =    0.0                 !
 ! D28   D(5,6,7,8)           -170.6881         -DE/DX =   -0.0004              !
 ! D29   D(5,6,7,9)              9.4544         -DE/DX =   -0.0002              !
 ! D30   D(6,7,9,3)              7.1755         -DE/DX =    0.0003              !
 ! D31   D(8,7,9,3)           -172.6826         -DE/DX =    0.0004              !
 --------------------------------------------------------------------------------
 GradGradGradGradGradGradGradGradGradGradGradGradGradGradGradGradGradGrad

 Largest change from initial coordinates is atom   15       3.458 Angstoms.
 Leave Link  103 at Mon May 16 16:57:07 2022, MaxMem=  2147483648 cpu:         5.9
 (Enter /gpfs/runtime/opt/gaussian/g09-D01/g09/l202.exe)
                          Input orientation:                          
 ---------------------------------------------------------------------
 Center     Atomic      Atomic             Coordinates (Angstroms)
 Number     Number       Type             X           Y           Z
 ---------------------------------------------------------------------
      1          6           0        3.272116    0.857689   -0.023218
      2          6           0        2.109970    0.425746    0.479201
      3          6           0        0.949910    0.034668   -0.386024
      4          1           0        1.123890    0.331932   -1.424431
      5          6           0        0.519382   -1.433298   -0.280003
      6          8           0       -0.914257   -1.347629   -0.334091
      7          6           0       -1.297114   -0.103907    0.001575
      8          8           0       -2.447959    0.236085    0.205175
      9          8           0       -0.234381    0.721050    0.080517
     10          1           0        4.079513    1.191973    0.627173
     11          1           0        3.417591    0.959223   -1.096666
     12          1           0        1.941652    0.376384    1.556396
     13          1           0        0.868426   -2.040048   -1.113800
     14          1           0        0.807984   -1.885301    0.674136
     15          3           0        3.949376   -1.362969    0.686661
 ---------------------------------------------------------------------
                    Distance matrix (angstroms):
                    1          2          3          4          5
     1  C    0.000000
     2  C    1.337753   0.000000
     3  C    2.490308   1.499098   0.000000
     4  H    2.618147   2.145919   1.094040   0.000000
     5  C    3.590558   2.561719   1.533467   2.188876   0.000000
     6  O    4.741919   3.598924   2.321328   2.857238   1.437214
     7  C    4.669384   3.480930   2.284415   2.843362   2.268529
     8  O    5.758282   4.570095   3.454794   3.927201   3.439091
     9  O    3.510691   2.396275   1.446142   2.064263   2.310703
    10  H    1.089331   2.118513   3.487167   3.699250   4.515479
    11  H    1.088009   2.116088   2.729334   2.400414   3.845870
    12  H    2.120606   1.091383   2.207559   3.091285   2.944514
    13  H    3.919691   3.187354   2.200170   2.405835   1.088667
    14  H    3.752631   2.659719   2.197809   3.069186   1.094523
    15  Li   2.427742   2.574094   3.478626   3.913153   3.564302
                    6          7          8          9         10
     6  O    0.000000
     7  C    1.343911   0.000000
     8  O    2.269626   1.217166   0.000000
     9  O    2.216657   1.347660   2.269506   0.000000
    10  H    5.684307   5.565859   6.610574   4.373817   0.000000
    11  H    4.966689   4.956291   6.051644   3.844396   1.861164
    12  H    3.834368   3.624604   4.595015   2.651817   2.469633
    13  H    2.065272   3.111634   4.233071   3.204097   4.877297
    14  H    2.066816   2.838510   3.914252   2.869142   4.491627
    15  Li   4.969618   5.438772   6.611709   4.713212   2.558945
                   11         12         13         14         15
    11  H    0.000000
    12  H    3.091413   0.000000
    13  H    3.936263   3.757779   0.000000
    14  H    4.247011   2.679329   1.795638   0.000000
    15  Li   2.975841   2.795128   3.632128   3.184546   0.000000
 Stoichiometry    C5H6LiO3(1+)
 Framework group  C1[X(C5H6LiO3)]
 Deg. of freedom    39
 Full point group                 C1      NOp   1
 RotChk:  IX=0 Diff= 9.35D-16
 Largest Abelian subgroup         C1      NOp   1
 Largest concise Abelian subgroup C1      NOp   1
                         Standard orientation:                         
 ---------------------------------------------------------------------
 Center     Atomic      Atomic             Coordinates (Angstroms)
 Number     Number       Type             X           Y           Z
 ---------------------------------------------------------------------
      1          6           0        2.896023   -0.718003    0.237142
      2          6           0        1.721183   -0.471374   -0.353203
      3          6           0        0.493891   -0.086207    0.416665
      4          1           0        0.650357   -0.226789    1.490294
      5          6           0       -0.066605    1.306015    0.101892
      6          8           0       -1.487025    1.088069    0.124075
      7          6           0       -1.737684   -0.220323   -0.053054
      8          8           0       -2.842115   -0.695126   -0.243548
      9          8           0       -0.600324   -0.940374    0.011182
     10          1           0        3.758054   -1.053635   -0.338095
     11          1           0        3.004405   -0.663699    1.318376
     12          1           0        1.595098   -0.579877   -1.431834
     13          1           0        0.188513    2.047741    0.856844
     14          1           0        0.219067    1.655598   -0.895185
     15          3           0        3.393121    1.446487   -0.743574
 ---------------------------------------------------------------------
 Rotational constants (GHZ):      4.5440453      1.0749188      0.9237102
 Leave Link  202 at Mon May 16 16:57:07 2022, MaxMem=  2147483648 cpu:         0.2
 (Enter /gpfs/runtime/opt/gaussian/g09-D01/g09/l601.exe)
 Copying SCF densities to generalized density rwf, IOpCl= 0 IROHF=0.

 **********************************************************************

            Population analysis using the SCF density.

 **********************************************************************

 Orbital symmetries:
       Occupied  (A) (A) (A) (A) (A) (A) (A) (A) (A) (A) (A) (A)
                 (A) (A) (A) (A) (A) (A) (A) (A) (A) (A) (A) (A)
                 (A) (A) (A) (A) (A) (A) (A)
       Virtual   (A) (A) (A) (A) (A) (A) (A) (A) (A) (A) (A) (A)
                 (A) (A) (A) (A) (A) (A) (A) (A) (A) (A) (A) (A)
                 (A) (A) (A) (A) (A) (A) (A) (A) (A) (A) (A) (A)
                 (A) (A) (A) (A) (A) (A) (A) (A) (A) (A) (A) (A)
                 (A) (A) (A) (A) (A) (A) (A) (A) (A) (A) (A) (A)
                 (A) (A) (A) (A) (A) (A) (A) (A) (A) (A) (A) (A)
                 (A) (A) (A) (A) (A) (A) (A) (A) (A) (A) (A) (A)
                 (A) (A) (A) (A) (A) (A) (A) (A) (A) (A) (A) (A)
                 (A) (A) (A) (A) (A) (A) (A) (A) (A) (A) (A) (A)
                 (A) (A) (A) (A) (A) (A) (A) (A) (A) (A) (A) (A)
                 (A) (A) (A) (A) (A) (A) (A) (A) (A) (A) (A) (A)
                 (A) (A) (A) (A) (A) (A) (A) (A) (A) (A) (A) (A)
                 (A) (A) (A) (A) (A) (A) (A) (A) (A) (A) (A) (A)
                 (A) (A) (A) (A) (A) (A) (A) (A) (A) (A) (A) (A)
                 (A) (A)
 The electronic state is 1-A.
 Alpha  occ. eigenvalues --  -19.71530 -19.71459 -19.65028 -10.74762 -10.63803
 Alpha  occ. eigenvalues --  -10.62439 -10.58960 -10.57598  -2.21251  -1.30255
 Alpha  occ. eigenvalues --   -1.18370  -1.16573  -0.93485  -0.85954  -0.77586
 Alpha  occ. eigenvalues --   -0.70875  -0.68104  -0.63234  -0.60451  -0.58897
 Alpha  occ. eigenvalues --   -0.53873  -0.52688  -0.52095  -0.50743  -0.46975
 Alpha  occ. eigenvalues --   -0.46689  -0.43885  -0.39314  -0.39251  -0.38341
 Alpha  occ. eigenvalues --   -0.36332
 Alpha virt. eigenvalues --   -0.01433  -0.01043  -0.00086   0.00242   0.00318
 Alpha virt. eigenvalues --    0.02209   0.03820   0.04502   0.04883   0.05063
 Alpha virt. eigenvalues --    0.05378   0.05995   0.06237   0.06866   0.07210
 Alpha virt. eigenvalues --    0.07810   0.09304   0.09352   0.10535   0.10601
 Alpha virt. eigenvalues --    0.11511   0.13157   0.13284   0.14353   0.15249
 Alpha virt. eigenvalues --    0.15365   0.16379   0.16952   0.17909   0.18656
 Alpha virt. eigenvalues --    0.19919   0.20660   0.22106   0.22321   0.23611
 Alpha virt. eigenvalues --    0.24169   0.26102   0.26542   0.27788   0.28406
 Alpha virt. eigenvalues --    0.29039   0.29335   0.29889   0.30533   0.31204
 Alpha virt. eigenvalues --    0.32220   0.32994   0.33591   0.34205   0.35668
 Alpha virt. eigenvalues --    0.37770   0.39226   0.39908   0.41437   0.43605
 Alpha virt. eigenvalues --    0.44437   0.44729   0.46699   0.50881   0.53102
 Alpha virt. eigenvalues --    0.54542   0.55997   0.57865   0.60026   0.64373
 Alpha virt. eigenvalues --    0.66321   0.68097   0.71844   0.75039   0.76629
 Alpha virt. eigenvalues --    0.80633   0.82826   0.84456   0.88502   0.90589
 Alpha virt. eigenvalues --    0.92485   0.95029   0.95420   0.98239   1.02117
 Alpha virt. eigenvalues --    1.04645   1.05916   1.10135   1.12663   1.14017
 Alpha virt. eigenvalues --    1.15225   1.19519   1.24939   1.25695   1.26039
 Alpha virt. eigenvalues --    1.29653   1.33310   1.34205   1.35644   1.37395
 Alpha virt. eigenvalues --    1.37892   1.39540   1.40051   1.41489   1.46208
 Alpha virt. eigenvalues --    1.47335   1.47941   1.51489   1.55541   1.57870
 Alpha virt. eigenvalues --    1.60153   1.65145   1.67318   1.73493   1.76303
 Alpha virt. eigenvalues --    1.82530   1.82700   1.86512   1.87771   1.89910
 Alpha virt. eigenvalues --    1.91010   1.92888   1.96487   1.97875   2.00044
 Alpha virt. eigenvalues --    2.01536   2.05252   2.06081   2.07929   2.14125
 Alpha virt. eigenvalues --    2.16029   2.16748   2.19866   2.23598   2.30776
 Alpha virt. eigenvalues --    2.31221   2.37301   2.42388   2.44885   2.47818
 Alpha virt. eigenvalues --    2.50368   2.53335   2.55178   2.59314   2.61688
 Alpha virt. eigenvalues --    2.64628   2.69469   2.70194   2.73781   2.74751
 Alpha virt. eigenvalues --    2.80073   2.83260   2.85049   2.88067   2.90543
 Alpha virt. eigenvalues --    2.94549   2.94795   3.05178   3.12201   3.22824
 Alpha virt. eigenvalues --    3.25369   3.28416   3.31777   3.41777   3.45972
 Alpha virt. eigenvalues --    3.46775   3.66851   4.20543   4.37366   4.45399
 Alpha virt. eigenvalues --    4.49327   4.56969   4.64858   4.68788   4.78270
          Condensed to atoms (all electrons):
               1          2          3          4          5          6
     1  C    5.289380   0.054106   0.106528   0.011913   0.028014  -0.010380
     2  C    0.054106   6.282880  -0.366841  -0.098918  -0.104827  -0.001957
     3  C    0.106528  -0.366841   6.011691   0.413848   0.100609   0.012039
     4  H    0.011913  -0.098918   0.413848   0.471393  -0.003882   0.000882
     5  C    0.028014  -0.104827   0.100609  -0.003882   5.373495   0.109259
     6  O   -0.010380  -0.001957   0.012039   0.000882   0.109259   8.422374
     7  C    0.003234   0.024790  -0.209306   0.011516  -0.124006   0.197777
     8  O    0.001384   0.016943  -0.032939  -0.000382   0.016039  -0.103582
     9  O    0.026144  -0.234637   0.318813  -0.037268  -0.058924  -0.161622
    10  H    0.343007  -0.014337   0.018733   0.000120   0.000079   0.000017
    11  H    0.425004  -0.068625   0.005332   0.001719   0.000813  -0.000050
    12  H    0.007333   0.300750   0.018734   0.002345   0.002653  -0.000616
    13  H    0.005213  -0.013472  -0.061453  -0.003823   0.438177  -0.040209
    14  H   -0.002586   0.034209  -0.071288   0.002760   0.400408  -0.039126
    15  Li   0.116178  -0.047230   0.070097   0.001628  -0.017360   0.002499
               7          8          9         10         11         12
     1  C    0.003234   0.001384   0.026144   0.343007   0.425004   0.007333
     2  C    0.024790   0.016943  -0.234637  -0.014337  -0.068625   0.300750
     3  C   -0.209306  -0.032939   0.318813   0.018733   0.005332   0.018734
     4  H    0.011516  -0.000382  -0.037268   0.000120   0.001719   0.002345
     5  C   -0.124006   0.016039  -0.058924   0.000079   0.000813   0.002653
     6  O    0.197777  -0.103582  -0.161622   0.000017  -0.000050  -0.000616
     7  C    4.586035   0.491875   0.174358   0.000244  -0.000893  -0.004871
     8  O    0.491875   8.268126  -0.090955  -0.000001   0.000003   0.000019
     9  O    0.174358  -0.090955   8.415341  -0.000244   0.000274   0.002022
    10  H    0.000244  -0.000001  -0.000244   0.438546  -0.019377  -0.003043
    11  H   -0.000893   0.000003   0.000274  -0.019377   0.435361   0.002453
    12  H   -0.004871   0.000019   0.002022  -0.003043   0.002453   0.434130
    13  H    0.014865  -0.000406   0.005981   0.000000  -0.000025  -0.000006
    14  H    0.000527   0.000094   0.001554  -0.000003   0.000012   0.000779
    15  Li   0.000305  -0.000603   0.003822   0.007425  -0.001860   0.002834
              13         14         15
     1  C    0.005213  -0.002586   0.116178
     2  C   -0.013472   0.034209  -0.047230
     3  C   -0.061453  -0.071288   0.070097
     4  H   -0.003823   0.002760   0.001628
     5  C    0.438177   0.400408  -0.017360
     6  O   -0.040209  -0.039126   0.002499
     7  C    0.014865   0.000527   0.000305
     8  O   -0.000406   0.000094  -0.000603
     9  O    0.005981   0.001554   0.003822
    10  H    0.000000  -0.000003   0.007425
    11  H   -0.000025   0.000012  -0.001860
    12  H   -0.000006   0.000779   0.002834
    13  H    0.453901  -0.026991   0.000267
    14  H   -0.026991   0.482922  -0.000306
    15  Li   0.000267  -0.000306   2.070169
 Mulliken charges:
               1
     1  C   -0.404472
     2  C    0.237165
     3  C   -0.334598
     4  H    0.226148
     5  C   -0.160549
     6  O   -0.387303
     7  C    0.833552
     8  O   -0.565614
     9  O   -0.364659
    10  H    0.228833
    11  H    0.219860
    12  H    0.234484
    13  H    0.227981
    14  H    0.217036
    15  Li   0.792137
 Sum of Mulliken charges =   1.00000
 Mulliken charges with hydrogens summed into heavy atoms:
               1
     1  C    0.044221
     2  C    0.471649
     3  C   -0.108450
     5  C    0.284467
     6  O   -0.387303
     7  C    0.833552
     8  O   -0.565614
     9  O   -0.364659
    15  Li   0.792137
 Electronic spatial extent (au):  <R**2>=           1119.9639
 Charge=              1.0000 electrons
 Dipole moment (field-independent basis, Debye):
    X=             22.6136    Y=              8.9475    Z=             -2.1989  Tot=             24.4186
 Quadrupole moment (field-independent basis, Debye-Ang):
   XX=             -5.3562   YY=            -38.3804   ZZ=            -39.3759
   XY=             17.9853   XZ=            -11.9534   YZ=             -5.3240
 Traceless Quadrupole moment (field-independent basis, Debye-Ang):
   XX=             22.3479   YY=            -10.6762   ZZ=            -11.6717
   XY=             17.9853   XZ=            -11.9534   YZ=             -5.3240
 Octapole moment (field-independent basis, Debye-Ang**2):
  XXX=            254.6275  YYY=             33.7127  ZZZ=             -3.9829  XYY=             44.6207
  XXY=             76.8245  XXZ=            -34.7971  XZZ=             16.4074  YZZ=              6.5924
  YYZ=             -7.6067  XYZ=            -15.1862
 Hexadecapole moment (field-independent basis, Debye-Ang**3):
 XXXX=           -470.7907 YYYY=           -225.4933 ZZZZ=            -77.3549 XXXY=            226.0090
 XXXZ=           -158.7824 YYYX=             81.5249 YYYZ=            -12.9695 ZZZX=            -16.5632
 ZZZY=             -8.6464 XXYY=           -108.8786 XXZZ=           -141.2033 YYZZ=            -47.1853
 XXYZ=            -63.2088 YYXZ=            -30.9446 ZZXY=             19.1174
 N-N= 3.961683737678D+02 E-N=-1.780179004803D+03  KE= 4.233260525352D+02
 No NMR shielding tensors so no spin-rotation constants.
 Leave Link  601 at Mon May 16 16:57:08 2022, MaxMem=  2147483648 cpu:         3.7
 (Enter /gpfs/runtime/opt/gaussian/g09-D01/g09/l9999.exe)


 THOSE WHO ARE UNABLE TO LEARN FROM PAST MEETINGS
 ARE CONDEMNED TO REPEAT THEM.
 Error termination request processed by link 9999.
 Error termination via Lnk1e in /gpfs/runtime/opt/gaussian/g09-D01/g09/l9999.exe at Mon May 16 16:57:08 2022.
 Job cpu time:       0 days  3 hours 16 minutes 45.0 seconds.
 File lengths (MBytes):  RWF=    588 Int=      0 D2E=      0 Chk=     12 Scr=      8
