 Entering Gaussian System, Link 0=g09
 Initial command:
 /gpfs/runtime/opt/gaussian/g09-D01/g09/l1.exe "/gpfs/data/yqi27/cgu13/CHEM1560Q/Gaussian/872-36-6/inp1/Gau-214181.inp" -scrdir="/gpfs/data/yqi27/cgu13/CHEM1560Q/Gaussian/872-36-6/inp1/"
 Entering Link 1 = /gpfs/runtime/opt/gaussian/g09-D01/g09/l1.exe PID=    214182.
  
 Copyright (c) 1988,1990,1992,1993,1995,1998,2003,2009,2013,
            Gaussian, Inc.  All Rights Reserved.
  
 This is part of the Gaussian(R) 09 program.  It is based on
 the Gaussian(R) 03 system (copyright 2003, Gaussian, Inc.),
 the Gaussian(R) 98 system (copyright 1998, Gaussian, Inc.),
 the Gaussian(R) 94 system (copyright 1995, Gaussian, Inc.),
 the Gaussian 92(TM) system (copyright 1992, Gaussian, Inc.),
 the Gaussian 90(TM) system (copyright 1990, Gaussian, Inc.),
 the Gaussian 88(TM) system (copyright 1988, Gaussian, Inc.),
 the Gaussian 86(TM) system (copyright 1986, Carnegie Mellon
 University), and the Gaussian 82(TM) system (copyright 1983,
 Carnegie Mellon University). Gaussian is a federally registered
 trademark of Gaussian, Inc.
  
 This software contains proprietary and confidential information,
 including trade secrets, belonging to Gaussian, Inc.
  
 This software is provided under written license and may be
 used, copied, transmitted, or stored only in accord with that
 written license.
  
 The following legend is applicable only to US Government
 contracts under FAR:
  
                    RESTRICTED RIGHTS LEGEND
  
 Use, reproduction and disclosure by the US Government is
 subject to restrictions as set forth in subparagraphs (a)
 and (c) of the Commercial Computer Software - Restricted
 Rights clause in FAR 52.227-19.
  
 Gaussian, Inc.
 340 Quinnipiac St., Bldg. 40, Wallingford CT 06492
  
  
 ---------------------------------------------------------------
 Warning -- This program may not be used in any manner that
 competes with the business of Gaussian, Inc. or will provide
 assistance to any competitor of Gaussian, Inc.  The licensee
 of this program is prohibited from giving any competitor of
 Gaussian, Inc. access to this program.  By using this program,
 the user acknowledges that Gaussian, Inc. is engaged in the
 business of creating and licensing software in the field of
 computational chemistry and represents and warrants to the
 licensee that it is not a competitor of Gaussian, Inc. and that
 it will not use this program in any manner prohibited above.
 ---------------------------------------------------------------
  

 Cite this work as:
 Gaussian 09, Revision D.01,
 M. J. Frisch, G. W. Trucks, H. B. Schlegel, G. E. Scuseria, 
 M. A. Robb, J. R. Cheeseman, G. Scalmani, V. Barone, B. Mennucci, 
 G. A. Petersson, H. Nakatsuji, M. Caricato, X. Li, H. P. Hratchian, 
 A. F. Izmaylov, J. Bloino, G. Zheng, J. L. Sonnenberg, M. Hada, 
 M. Ehara, K. Toyota, R. Fukuda, J. Hasegawa, M. Ishida, T. Nakajima, 
 Y. Honda, O. Kitao, H. Nakai, T. Vreven, J. A. Montgomery, Jr., 
 J. E. Peralta, F. Ogliaro, M. Bearpark, J. J. Heyd, E. Brothers, 
 K. N. Kudin, V. N. Staroverov, T. Keith, R. Kobayashi, J. Normand, 
 K. Raghavachari, A. Rendell, J. C. Burant, S. S. Iyengar, J. Tomasi, 
 M. Cossi, N. Rega, J. M. Millam, M. Klene, J. E. Knox, J. B. Cross, 
 V. Bakken, C. Adamo, J. Jaramillo, R. Gomperts, R. E. Stratmann, 
 O. Yazyev, A. J. Austin, R. Cammi, C. Pomelli, J. W. Ochterski, 
 R. L. Martin, K. Morokuma, V. G. Zakrzewski, G. A. Voth, 
 P. Salvador, J. J. Dannenberg, S. Dapprich, A. D. Daniels, 
 O. Farkas, J. B. Foresman, J. V. Ortiz, J. Cioslowski, 
 and D. J. Fox, Gaussian, Inc., Wallingford CT, 2013.
 
 ******************************************
 Gaussian 09:  EM64L-G09RevD.01 24-Apr-2013
                16-May-2022 
 ******************************************
 %Mem=16GB
 %NProcShared=8
 Will use up to    8 processors via shared memory.
 ----------------------------------------------------------------------
 #P M062X/6-31+G** EmpiricalDispersion=GD3 SCRF(SMD,solvent=DiMethylSul
 foxide) Opt Freq
 ----------------------------------------------------------------------
 1/14=-1,18=20,19=15,26=3,38=1/1,3;
 2/9=110,12=2,17=6,18=5,40=1/2;
 3/5=1,6=6,7=111,11=2,16=1,25=1,30=1,70=32201,71=1,72=21,74=-55,124=31/1,2,3;
 4//1;
 5/5=2,38=5,53=21/2;
 6/7=2,8=2,9=2,10=2,28=1/1;
 7//1,2,3,16;
 1/14=-1,18=20,19=15,26=3/3(2);
 2/9=110/2;
 99//99;
 2/9=110/2;
 3/5=1,6=6,7=111,11=2,16=1,25=1,30=1,70=32205,71=1,72=21,74=-55,124=31/1,2,3;
 4/5=5,16=3,69=1/1;
 5/5=2,38=5,53=21/2;
 7//1,2,3,16;
 1/14=-1,18=20,19=15,26=3/3(-5);
 2/9=110/2;
 6/7=2,8=2,9=2,10=2,19=2,28=1/1;
 99/9=1/99;
 Leave Link    1 at Mon May 16 16:23:30 2022, MaxMem=  2147483648 cpu:         0.6
 (Enter /gpfs/runtime/opt/gaussian/g09-D01/g09/l101.exe)
 --------
 872-36-6
 --------
 Symbolic Z-matrix:
 Charge =  1 Multiplicity = 1
 O                    -1.9336    0.       -0.0008 
 C                    -0.7179    0.       -0.0011 
 O                     0.0735    1.0847    0.0009 
 C                     1.3613    0.6617    0.0002 
 C                     1.3613   -0.6617   -0.0022 
 O                     0.0735   -1.0847    0.0024 
 H                     2.2361    1.2951    0.0009 
 H                     2.2361   -1.2951   -0.0038 
 Li                    5.2361    0.       -0.0004 
 
 Add virtual bond connecting atoms Li9        and H7         Dist= 6.17D+00.
 Add virtual bond connecting atoms Li9        and H8         Dist= 6.17D+00.
 NAtoms=      9 NQM=        9 NQMF=       0 NMMI=      0 NMMIF=      0
                NMic=       0 NMicF=      0.
                    Isotopes and Nuclear Properties:
 (Nuclear quadrupole moments (NQMom) in fm**2, nuclear magnetic moments (NMagM)
  in nuclear magnetons)

  Atom         1           2           3           4           5           6           7           8           9
 IAtWgt=          16          12          16          12          12          16           1           1           7
 AtmWgt=  15.9949146  12.0000000  15.9949146  12.0000000  12.0000000  15.9949146   1.0078250   1.0078250   7.0160045
 NucSpn=           0           0           0           0           0           0           1           1           3
 AtZEff=   0.0000000   0.0000000   0.0000000   0.0000000   0.0000000   0.0000000   0.0000000   0.0000000   0.0000000
 NQMom=    0.0000000   0.0000000   0.0000000   0.0000000   0.0000000   0.0000000   0.0000000   0.0000000  -4.0100000
 NMagM=    0.0000000   0.0000000   0.0000000   0.0000000   0.0000000   0.0000000   2.7928460   2.7928460   3.2564240
 AtZNuc=   8.0000000   6.0000000   8.0000000   6.0000000   6.0000000   8.0000000   1.0000000   1.0000000   3.0000000
 Leave Link  101 at Mon May 16 16:23:30 2022, MaxMem=  2147483648 cpu:         1.6
 (Enter /gpfs/runtime/opt/gaussian/g09-D01/g09/l103.exe)

 GradGradGradGradGradGradGradGradGradGradGradGradGradGradGradGradGradGrad
 Berny optimization.
 Initialization pass.
                           ----------------------------
                           !    Initial Parameters    !
                           ! (Angstroms and Degrees)  !
 --------------------------                            --------------------------
 ! Name  Definition              Value          Derivative Info.                !
 --------------------------------------------------------------------------------
 ! R1    R(1,2)                  1.2157         estimate D2E/DX2                !
 ! R2    R(2,3)                  1.3427         estimate D2E/DX2                !
 ! R3    R(2,6)                  1.3427         estimate D2E/DX2                !
 ! R4    R(3,4)                  1.3555         estimate D2E/DX2                !
 ! R5    R(4,5)                  1.3234         estimate D2E/DX2                !
 ! R6    R(4,7)                  1.08           estimate D2E/DX2                !
 ! R7    R(5,6)                  1.3555         estimate D2E/DX2                !
 ! R8    R(5,8)                  1.08           estimate D2E/DX2                !
 ! R9    R(7,9)                  3.2676         estimate D2E/DX2                !
 ! R10   R(8,9)                  3.2676         estimate D2E/DX2                !
 ! A1    A(1,2,3)              126.1145         estimate D2E/DX2                !
 ! A2    A(1,2,6)              126.1144         estimate D2E/DX2                !
 ! A3    A(3,2,6)              107.7705         estimate D2E/DX2                !
 ! A4    A(2,3,4)              107.9309         estimate D2E/DX2                !
 ! A5    A(3,4,5)              108.1837         estimate D2E/DX2                !
 ! A6    A(3,4,7)              125.9098         estimate D2E/DX2                !
 ! A7    A(5,4,7)              125.9065         estimate D2E/DX2                !
 ! A8    A(4,5,6)              108.1831         estimate D2E/DX2                !
 ! A9    A(4,5,8)              125.9065         estimate D2E/DX2                !
 ! A10   A(6,5,8)              125.91           estimate D2E/DX2                !
 ! A11   A(2,6,5)              107.9302         estimate D2E/DX2                !
 ! A12   A(4,7,9)              120.7437         estimate D2E/DX2                !
 ! A13   A(5,8,9)              120.7435         estimate D2E/DX2                !
 ! A14   A(7,9,8)               46.6998         estimate D2E/DX2                !
 ! D1    D(1,2,3,4)            179.9789         estimate D2E/DX2                !
 ! D2    D(6,2,3,4)              0.2429         estimate D2E/DX2                !
 ! D3    D(1,2,6,5)            179.8738         estimate D2E/DX2                !
 ! D4    D(3,2,6,5)             -0.3902         estimate D2E/DX2                !
 ! D5    D(2,3,4,5)              0.0004         estimate D2E/DX2                !
 ! D6    D(2,3,4,7)            179.968          estimate D2E/DX2                !
 ! D7    D(3,4,5,6)             -0.2418         estimate D2E/DX2                !
 ! D8    D(3,4,5,8)            179.9675         estimate D2E/DX2                !
 ! D9    D(7,4,5,6)            179.7906         estimate D2E/DX2                !
 ! D10   D(7,4,5,8)             -0.0002         estimate D2E/DX2                !
 ! D11   D(3,4,7,9)            179.9852         estimate D2E/DX2                !
 ! D12   D(5,4,7,9)             -0.0528         estimate D2E/DX2                !
 ! D13   D(4,5,6,2)              0.3931         estimate D2E/DX2                !
 ! D14   D(8,5,6,2)           -179.8161         estimate D2E/DX2                !
 ! D15   D(4,5,8,9)              0.053          estimate D2E/DX2                !
 ! D16   D(6,5,8,9)           -179.7015         estimate D2E/DX2                !
 ! D17   D(4,7,9,8)              0.0466         estimate D2E/DX2                !
 ! D18   D(5,8,9,7)             -0.0467         estimate D2E/DX2                !
 --------------------------------------------------------------------------------
 Trust Radius=3.00D-01 FncErr=1.00D-07 GrdErr=1.00D-06
 Number of steps in this run=     52 maximum allowed number of steps=    100.
 GradGradGradGradGradGradGradGradGradGradGradGradGradGradGradGradGradGrad

 Leave Link  103 at Mon May 16 16:23:30 2022, MaxMem=  2147483648 cpu:         0.2
 (Enter /gpfs/runtime/opt/gaussian/g09-D01/g09/l202.exe)
                          Input orientation:                          
 ---------------------------------------------------------------------
 Center     Atomic      Atomic             Coordinates (Angstroms)
 Number     Number       Type             X           Y           Z
 ---------------------------------------------------------------------
      1          8           0       -1.933600    0.000000   -0.000800
      2          6           0       -0.717900    0.000000   -0.001100
      3          8           0        0.073500    1.084700    0.000900
      4          6           0        1.361300    0.661700    0.000200
      5          6           0        1.361300   -0.661700   -0.002200
      6          8           0        0.073500   -1.084700    0.002400
      7          1           0        2.236100    1.295100    0.000900
      8          1           0        2.236100   -1.295100   -0.003800
      9          3           0        5.236100    0.000000   -0.000400
 ---------------------------------------------------------------------
                    Distance matrix (angstroms):
                    1          2          3          4          5
     1  O    0.000000
     2  C    1.215700   0.000000
     3  O    2.281453   1.342718   0.000000
     4  C    3.360687   2.181954   1.355492   0.000000
     5  C    3.360687   2.181953   2.169874   1.323402   0.000000
     6  O    2.281455   1.342721   2.169401   2.169872   1.355500
     7  H    4.366198   3.225431   2.172811   1.080033   2.143444
     8  H    4.366199   3.225431   3.215635   2.143445   1.080034
     9  Li   7.169700   5.954000   5.275321   3.930893   3.930894
                    6          7          8          9
     6  O    0.000000
     7  H    3.215632   0.000000
     8  H    2.172820   2.590204   0.000000
     9  Li   5.275322   3.267612   3.267613   0.000000
 Stoichiometry    C3H2LiO3(1+)
 Framework group  C1[X(C3H2LiO3)]
 Deg. of freedom    21
 Full point group                 C1      NOp   1
 Largest Abelian subgroup         C1      NOp   1
 Largest concise Abelian subgroup C1      NOp   1
                         Standard orientation:                         
 ---------------------------------------------------------------------
 Center     Atomic      Atomic             Coordinates (Angstroms)
 Number     Number       Type             X           Y           Z
 ---------------------------------------------------------------------
      1          8           0        2.314789    0.000000    0.000743
      2          6           0        1.099089    0.000000    0.001043
      3          8           0        0.307689    1.084700   -0.000957
      4          6           0       -0.980111    0.661700   -0.000257
      5          6           0       -0.980111   -0.661700    0.002143
      6          8           0        0.307689   -1.084700   -0.002457
      7          1           0       -1.854911    1.295100   -0.000957
      8          1           0       -1.854911   -1.295100    0.003743
      9          3           0       -4.854911    0.000000    0.000343
 ---------------------------------------------------------------------
 Rotational constants (GHZ):      9.8078995      1.6926616      1.4435360
 Leave Link  202 at Mon May 16 16:23:31 2022, MaxMem=  2147483648 cpu:         0.6
 (Enter /gpfs/runtime/opt/gaussian/g09-D01/g09/l301.exe)
 Standard basis: 6-31+G(d,p) (6D, 7F)
 Ernie: Thresh=  0.10000D-02 Tol=  0.10000D-05 Strict=F.
 There are   143 symmetry adapted cartesian basis functions of A   symmetry.
 There are   143 symmetry adapted basis functions of A   symmetry.
   143 basis functions,   238 primitive gaussians,   143 cartesian basis functions
    23 alpha electrons       23 beta electrons
       nuclear repulsion energy       245.3798711643 Hartrees.
 IExCor= 4336 DFT=T Ex+Corr=M062X ExCW=0 ScaHFX=  0.540000
 ScaDFX=  1.000000  1.000000  1.000000  1.000000 ScalE2=  1.000000  1.000000
 IRadAn=      0 IRanWt=     -1 IRanGd=            0 ICorTp=0 IEmpDi=131
 NAtoms=    9 NActive=    9 NUniq=    9 SFac= 1.00D+00 NAtFMM=   60 NAOKFM=F Big=F
 Integral buffers will be    131072 words long.
 Raffenetti 2 integral format.
 Two-electron integral symmetry is turned on.
 R6Disp:  Grimme-D3 Dispersion energy=       -0.0001830424 Hartrees.
 Nuclear repulsion after empirical dispersion term =      245.3796881219 Hartrees.
 ------------------------------------------------------------------------------
 Polarizable Continuum Model (PCM)
 =================================
 Model                : PCM (using non-symmetric T matrix).
 Atomic radii         : SMD-Coulomb.
 Polarization charges : Total charges.
 Charge compensation  : None.
 Solution method      : On-the-fly selection.
 Cavity type          : VdW (van der Waals Surface) (Alpha=1.000).
 Cavity algorithm     : GePol (No added spheres)
                        Default sphere list used, NSphG=    9.
                        Lebedev-Laikov grids with approx.  5.0 points / Ang**2.
                        Smoothing algorithm: Karplus/York (Gamma=1.0000).
                        Polarization charges: spherical gaussians, with
                                              point-specific exponents (IZeta= 3).
                        Self-potential: point-specific (ISelfS= 7).
                        Self-field    : sphere-specific E.n sum rule (ISelfD= 2).
 1st derivatives      : Analytical E(r).r(x)/FMM algorithm (CHGder, D1EAlg=3).
                        Cavity 1st derivative terms included.
 Solvent              : DiMethylSulfoxide, Eps=  46.826000 Eps(inf)=   2.007889
 ------------------------------------------------------------------------------
 Spheres list:
 ISph  on   Nord     Re0    Alpha      Xe            Ye            Ze
    1   O      1    2.2940  1.000      2.314789      0.000000      0.000743
    2   C      2    1.8500  1.000      1.099089      0.000000      0.001043
    3   O      3    2.2940  1.000      0.307689      1.084700     -0.000957
    4   C      4    1.8500  1.000     -0.980111      0.661700     -0.000257
    5   C      5    1.8500  1.000     -0.980111     -0.661700      0.002143
    6   O      6    2.2940  1.000      0.307689     -1.084700     -0.002457
    7   H      7    1.2000  1.000     -1.854911      1.295100     -0.000957
    8   H      8    1.2000  1.000     -1.854911     -1.295100      0.003743
    9  Li      9    1.8200  1.000     -4.854911      0.000000      0.000343
 ------------------------------------------------------------------------------
 Separa: There are  2 disjoint cavities,
 GePol: Number of generator spheres                  =       9
 GePol: Total number of spheres                      =       9
 GePol: Number of exposed spheres                    =       9 (100.00%)
 GePol: Number of points                             =    1311
 GePol: Average weight of points                     =       0.13
 GePol: Minimum weight of points                     =   0.61D-08
 GePol: Maximum weight of points                     =    0.17992
 GePol: Number of points with low weight             =      35
 GePol: Fraction of low-weight points (<1% of avg)   =       2.67%
 ------------------------------------------------------------------------------
 Atomic radii for non-electrostatic terms: SMD-CDS.
 ------------------------------------------------------------------------------
 PCM non-electrostatic energy =         0.0017592367 Hartrees.
 Nuclear repulsion after PCM non-electrostatic terms =      245.3814473587 Hartrees.
 Leave Link  301 at Mon May 16 16:23:31 2022, MaxMem=  2147483648 cpu:         0.6
 (Enter /gpfs/runtime/opt/gaussian/g09-D01/g09/l302.exe)
 NPDir=0 NMtPBC=     1 NCelOv=     1 NCel=       1 NClECP=     1 NCelD=      1
         NCelK=      1 NCelE2=     1 NClLst=     1 CellRange=     0.0.
 One-electron integrals computed using PRISM.
 NBasis=   143 RedAO= T EigKep=  7.54D-05  NBF=   143
 NBsUse=   143 1.00D-06 EigRej= -1.00D+00 NBFU=   143
 Precomputing XC quadrature grid using
 IXCGrd= 4 IRadAn=           0 IRanWt=          -1 IRanGd=           0 AccXCQ= 0.00D+00.
 Generated NRdTot=       0 NPtTot=           0 NUsed=           0 NTot=          32
 NSgBfM=   143   143   143   143   143 MxSgAt=     9 MxSgA2=     9.
 Leave Link  302 at Mon May 16 16:23:32 2022, MaxMem=  2147483648 cpu:         5.1
 (Enter /gpfs/runtime/opt/gaussian/g09-D01/g09/l303.exe)
 DipDrv:  MaxL=1.
 Leave Link  303 at Mon May 16 16:23:33 2022, MaxMem=  2147483648 cpu:         0.6
 (Enter /gpfs/runtime/opt/gaussian/g09-D01/g09/l401.exe)
 ExpMin= 7.40D-03 ExpMax= 5.48D+03 ExpMxC= 8.25D+02 IAcc=3 IRadAn=         5 AccDes= 0.00D+00
 Harris functional with IExCor= 1009 and IRadAn=       5 diagonalized for initial guess.
 HarFok:  IExCor= 1009 AccDes= 0.00D+00 IRadAn=         5 IDoV= 1 UseB2=F ITyADJ=14
 ICtDFT=  3500011 ScaDFX=  1.000000  1.000000  1.000000  1.000000
 FoFCou: FMM=F IPFlag=           0 FMFlag=      100000 FMFlg1=           0
         NFxFlg=           0 DoJE=T BraDBF=F KetDBF=T FulRan=T
         wScrn=  0.000000 ICntrl=     500 IOpCl=  0 I1Cent=   200000004 NGrid=           0
         NMat0=    1 NMatS0=      1 NMatT0=    0 NMatD0=    1 NMtDS0=    0 NMtDT0=    0
 Petite list used in FoFCou.
 Harris En= -348.211158887076    
 JPrj=0 DoOrth=F DoCkMO=F.
 Leave Link  401 at Mon May 16 16:23:34 2022, MaxMem=  2147483648 cpu:         6.0
 (Enter /gpfs/runtime/opt/gaussian/g09-D01/g09/l502.exe)
 Closed shell SCF:
 Using DIIS extrapolation, IDIIS=  1040.
 Integral symmetry usage will be decided dynamically.
 Keep R1 ints in memory in canonical form, NReq=57958905.
 IVT=       82101 IEndB=       82101 NGot=  2147483648 MDV=  2094392592
 LenX=  2094392592 LenY=  2094371702
 Requested convergence on RMS density matrix=1.00D-08 within 128 cycles.
 Requested convergence on MAX density matrix=1.00D-06.
 Requested convergence on             energy=1.00D-06.
 No special actions if energy rises.
 FoFCou: FMM=F IPFlag=           0 FMFlag=           0 FMFlg1=           0
         NFxFlg=           0 DoJE=F BraDBF=F KetDBF=F FulRan=T
         wScrn=  0.000000 ICntrl=     600 IOpCl=  0 I1Cent=           0 NGrid=           0
         NMat0=    1 NMatS0=  10296 NMatT0=    0 NMatD0=    1 NMtDS0=    0 NMtDT0=    0
 Symmetry not used in FoFCou.

 Cycle   1  Pass 1  IDiag  1:
 PCMQM: There is more than one cavity, setting IComp=0.
 Inv3:  Mode=1 IEnd=     5156163.
 Iteration    1 A*A^-1 deviation from unit magnitude is 6.22D-15 for    263.
 Iteration    1 A*A^-1 deviation from orthogonality  is 4.82D-15 for   1116    967.
 Iteration    1 A^-1*A deviation from unit magnitude is 7.66D-15 for    125.
 Iteration    1 A^-1*A deviation from orthogonality  is 3.12D-12 for    743    469.
 E= -348.365905814549    
 DIIS: error= 3.25D-02 at cycle   1 NSaved=   1.
 NSaved= 1 IEnMin= 1 EnMin= -348.365905814549     IErMin= 1 ErrMin= 3.25D-02
 ErrMax= 3.25D-02  0.00D+00 EMaxC= 1.00D-01 BMatC= 1.71D-01 BMatP= 1.71D-01
 IDIUse=3 WtCom= 6.75D-01 WtEn= 3.25D-01
 Coeff-Com:  0.100D+01
 Coeff-En:   0.100D+01
 Coeff:      0.100D+01
 Gap=     0.251 Goal=   None    Shift=    0.000
 GapD=    0.251 DampG=1.000 DampE=0.500 DampFc=0.5000 IDamp=-1.
 Damping current iteration by 5.00D-01
 RMSDP=5.75D-03 MaxDP=1.70D-01              OVMax= 2.01D-01

 Cycle   2  Pass 1  IDiag  1:
 PCMQM: There is more than one cavity, setting IComp=0.
 E= -348.410442816529     Delta-E=       -0.044537001981 Rises=F Damp=T
 DIIS: error= 1.22D-02 at cycle   2 NSaved=   2.
 NSaved= 2 IEnMin= 2 EnMin= -348.410442816529     IErMin= 2 ErrMin= 1.22D-02
 ErrMax= 1.22D-02  0.00D+00 EMaxC= 1.00D-01 BMatC= 2.17D-02 BMatP= 1.71D-01
 IDIUse=3 WtCom= 8.78D-01 WtEn= 1.22D-01
 Coeff-Com:  0.783D-01 0.922D+00
 Coeff-En:   0.184D+00 0.816D+00
 Coeff:      0.912D-01 0.909D+00
 Gap=     0.283 Goal=   None    Shift=    0.000
 RMSDP=1.53D-03 MaxDP=3.11D-02 DE=-4.45D-02 OVMax= 1.44D-01

 Cycle   3  Pass 1  IDiag  1:
 PCMQM: There is more than one cavity, setting IComp=0.
 E= -348.474567789977     Delta-E=       -0.064124973448 Rises=F Damp=F
 DIIS: error= 6.16D-03 at cycle   3 NSaved=   3.
 NSaved= 3 IEnMin= 3 EnMin= -348.474567789977     IErMin= 3 ErrMin= 6.16D-03
 ErrMax= 6.16D-03  0.00D+00 EMaxC= 1.00D-01 BMatC= 8.01D-03 BMatP= 2.17D-02
 IDIUse=3 WtCom= 9.38D-01 WtEn= 6.16D-02
 Coeff-Com: -0.712D-01 0.363D+00 0.708D+00
 Coeff-En:   0.000D+00 0.000D+00 0.100D+01
 Coeff:     -0.668D-01 0.341D+00 0.726D+00
 Gap=     0.297 Goal=   None    Shift=    0.000
 RMSDP=6.83D-04 MaxDP=2.19D-02 DE=-6.41D-02 OVMax= 3.14D-02

 Cycle   4  Pass 1  IDiag  1:
 PCMQM: There is more than one cavity, setting IComp=0.
 E= -348.479828589136     Delta-E=       -0.005260799158 Rises=F Damp=F
 DIIS: error= 3.01D-03 at cycle   4 NSaved=   4.
 NSaved= 4 IEnMin= 4 EnMin= -348.479828589136     IErMin= 4 ErrMin= 3.01D-03
 ErrMax= 3.01D-03  0.00D+00 EMaxC= 1.00D-01 BMatC= 1.25D-03 BMatP= 8.01D-03
 IDIUse=3 WtCom= 9.70D-01 WtEn= 3.01D-02
 Coeff-Com: -0.341D-01 0.880D-01 0.348D+00 0.598D+00
 Coeff-En:   0.000D+00 0.000D+00 0.736D-01 0.926D+00
 Coeff:     -0.330D-01 0.854D-01 0.339D+00 0.608D+00
 Gap=     0.291 Goal=   None    Shift=    0.000
 RMSDP=2.11D-04 MaxDP=5.43D-03 DE=-5.26D-03 OVMax= 8.97D-03

 Cycle   5  Pass 1  IDiag  1:
 PCMQM: There is more than one cavity, setting IComp=0.
 E= -348.480743866749     Delta-E=       -0.000915277614 Rises=F Damp=F
 DIIS: error= 6.07D-04 at cycle   5 NSaved=   5.
 NSaved= 5 IEnMin= 5 EnMin= -348.480743866749     IErMin= 5 ErrMin= 6.07D-04
 ErrMax= 6.07D-04  0.00D+00 EMaxC= 1.00D-01 BMatC= 4.12D-05 BMatP= 1.25D-03
 IDIUse=3 WtCom= 9.94D-01 WtEn= 6.07D-03
 Coeff-Com: -0.900D-02 0.158D-01 0.932D-01 0.236D+00 0.664D+00
 Coeff-En:   0.000D+00 0.000D+00 0.000D+00 0.000D+00 0.100D+01
 Coeff:     -0.895D-02 0.157D-01 0.926D-01 0.235D+00 0.666D+00
 Gap=     0.290 Goal=   None    Shift=    0.000
 RMSDP=4.05D-05 MaxDP=9.81D-04 DE=-9.15D-04 OVMax= 1.88D-03

 Cycle   6  Pass 1  IDiag  1:
 PCMQM: There is more than one cavity, setting IComp=0.
 E= -348.480776456364     Delta-E=       -0.000032589615 Rises=F Damp=F
 DIIS: error= 1.29D-04 at cycle   6 NSaved=   6.
 NSaved= 6 IEnMin= 6 EnMin= -348.480776456364     IErMin= 6 ErrMin= 1.29D-04
 ErrMax= 1.29D-04  0.00D+00 EMaxC= 1.00D-01 BMatC= 2.83D-06 BMatP= 4.12D-05
 IDIUse=3 WtCom= 9.99D-01 WtEn= 1.29D-03
 Coeff-Com: -0.141D-02 0.649D-03 0.137D-01 0.440D-01 0.254D+00 0.689D+00
 Coeff-En:   0.000D+00 0.000D+00 0.000D+00 0.000D+00 0.000D+00 0.100D+01
 Coeff:     -0.141D-02 0.648D-03 0.137D-01 0.440D-01 0.254D+00 0.689D+00
 Gap=     0.290 Goal=   None    Shift=    0.000
 RMSDP=1.20D-05 MaxDP=2.41D-04 DE=-3.26D-05 OVMax= 5.01D-04

 Cycle   7  Pass 1  IDiag  1:
 PCMQM: There is more than one cavity, setting IComp=0.
 E= -348.480778843595     Delta-E=       -0.000002387230 Rises=F Damp=F
 DIIS: error= 4.13D-05 at cycle   7 NSaved=   7.
 NSaved= 7 IEnMin= 7 EnMin= -348.480778843595     IErMin= 7 ErrMin= 4.13D-05
 ErrMax= 4.13D-05  0.00D+00 EMaxC= 1.00D-01 BMatC= 1.96D-07 BMatP= 2.83D-06
 IDIUse=1 WtCom= 1.00D+00 WtEn= 0.00D+00
 Coeff-Com:  0.900D-03-0.197D-02-0.832D-02-0.232D-01-0.138D-01 0.117D+00
 Coeff-Com:  0.930D+00
 Coeff:      0.900D-03-0.197D-02-0.832D-02-0.232D-01-0.138D-01 0.117D+00
 Coeff:      0.930D+00
 Gap=     0.290 Goal=   None    Shift=    0.000
 RMSDP=6.78D-06 MaxDP=1.55D-04 DE=-2.39D-06 OVMax= 2.30D-04

 Cycle   8  Pass 1  IDiag  1:
 PCMQM: There is more than one cavity, setting IComp=0.
 E= -348.480779142211     Delta-E=       -0.000000298617 Rises=F Damp=F
 DIIS: error= 1.26D-05 at cycle   8 NSaved=   8.
 NSaved= 8 IEnMin= 8 EnMin= -348.480779142211     IErMin= 8 ErrMin= 1.26D-05
 ErrMax= 1.26D-05  0.00D+00 EMaxC= 1.00D-01 BMatC= 2.85D-08 BMatP= 1.96D-07
 IDIUse=1 WtCom= 1.00D+00 WtEn= 0.00D+00
 Coeff-Com:  0.423D-03-0.680D-03-0.327D-02-0.113D-01-0.234D-01-0.292D-01
 Coeff-Com:  0.290D+00 0.777D+00
 Coeff:      0.423D-03-0.680D-03-0.327D-02-0.113D-01-0.234D-01-0.292D-01
 Coeff:      0.290D+00 0.777D+00
 Gap=     0.290 Goal=   None    Shift=    0.000
 RMSDP=2.06D-06 MaxDP=4.27D-05 DE=-2.99D-07 OVMax= 1.12D-04

 Cycle   9  Pass 1  IDiag  1:
 PCMQM: There is more than one cavity, setting IComp=0.
 E= -348.480779178988     Delta-E=       -0.000000036777 Rises=F Damp=F
 DIIS: error= 3.80D-06 at cycle   9 NSaved=   9.
 NSaved= 9 IEnMin= 9 EnMin= -348.480779178988     IErMin= 9 ErrMin= 3.80D-06
 ErrMax= 3.80D-06  0.00D+00 EMaxC= 1.00D-01 BMatC= 1.82D-09 BMatP= 2.85D-08
 IDIUse=1 WtCom= 1.00D+00 WtEn= 0.00D+00
 Coeff-Com: -0.691D-04 0.147D-03 0.101D-02 0.219D-02 0.221D-02-0.125D-01
 Coeff-Com: -0.105D+00-0.852D-02 0.112D+01
 Coeff:     -0.691D-04 0.147D-03 0.101D-02 0.219D-02 0.221D-02-0.125D-01
 Coeff:     -0.105D+00-0.852D-02 0.112D+01
 Gap=     0.290 Goal=   None    Shift=    0.000
 RMSDP=9.97D-07 MaxDP=2.54D-05 DE=-3.68D-08 OVMax= 4.47D-05

 Cycle  10  Pass 1  IDiag  1:
 PCMQM: There is more than one cavity, setting IComp=0.
 E= -348.480779182666     Delta-E=       -0.000000003678 Rises=F Damp=F
 DIIS: error= 4.46D-07 at cycle  10 NSaved=  10.
 NSaved=10 IEnMin=10 EnMin= -348.480779182666     IErMin=10 ErrMin= 4.46D-07
 ErrMax= 4.46D-07  0.00D+00 EMaxC= 1.00D-01 BMatC= 3.17D-11 BMatP= 1.82D-09
 IDIUse=1 WtCom= 1.00D+00 WtEn= 0.00D+00
 Coeff-Com: -0.102D-04 0.160D-04 0.117D-03 0.330D-03 0.808D-03 0.126D-02
 Coeff-Com: -0.894D-02-0.290D-01-0.222D-01 0.106D+01
 Coeff:     -0.102D-04 0.160D-04 0.117D-03 0.330D-03 0.808D-03 0.126D-02
 Coeff:     -0.894D-02-0.290D-01-0.222D-01 0.106D+01
 Gap=     0.290 Goal=   None    Shift=    0.000
 RMSDP=1.23D-07 MaxDP=1.97D-06 DE=-3.68D-09 OVMax= 6.91D-06

 Cycle  11  Pass 1  IDiag  1:
 PCMQM: There is more than one cavity, setting IComp=0.
 E= -348.480779182745     Delta-E=       -0.000000000079 Rises=F Damp=F
 DIIS: error= 7.86D-08 at cycle  11 NSaved=  11.
 NSaved=11 IEnMin=11 EnMin= -348.480779182745     IErMin=11 ErrMin= 7.86D-08
 ErrMax= 7.86D-08  0.00D+00 EMaxC= 1.00D-01 BMatC= 1.10D-12 BMatP= 3.17D-11
 IDIUse=1 WtCom= 1.00D+00 WtEn= 0.00D+00
 Coeff-Com:  0.329D-05-0.678D-05-0.322D-04-0.847D-04-0.715D-04 0.327D-03
 Coeff-Com:  0.356D-02 0.307D-02-0.359D-01-0.753D-01 0.110D+01
 Coeff:      0.329D-05-0.678D-05-0.322D-04-0.847D-04-0.715D-04 0.327D-03
 Coeff:      0.356D-02 0.307D-02-0.359D-01-0.753D-01 0.110D+01
 Gap=     0.290 Goal=   None    Shift=    0.000
 RMSDP=1.98D-08 MaxDP=4.18D-07 DE=-7.94D-11 OVMax= 6.22D-07

 Cycle  12  Pass 1  IDiag  1:
 PCMQM: There is more than one cavity, setting IComp=0.
 E= -348.480779182744     Delta-E=        0.000000000001 Rises=F Damp=F
 DIIS: error= 7.56D-09 at cycle  12 NSaved=  12.
 NSaved=12 IEnMin=11 EnMin= -348.480779182745     IErMin=12 ErrMin= 7.56D-09
 ErrMax= 7.56D-09  0.00D+00 EMaxC= 1.00D-01 BMatC= 1.34D-14 BMatP= 1.10D-12
 IDIUse=1 WtCom= 1.00D+00 WtEn= 0.00D+00
 Coeff-Com:  0.138D-06-0.219D-06-0.418D-06-0.242D-05-0.102D-04-0.460D-04
 Coeff-Com:  0.474D-05 0.577D-03 0.184D-02-0.226D-01 0.391D-02 0.102D+01
 Coeff:      0.138D-06-0.219D-06-0.418D-06-0.242D-05-0.102D-04-0.460D-04
 Coeff:      0.474D-05 0.577D-03 0.184D-02-0.226D-01 0.391D-02 0.102D+01
 Gap=     0.290 Goal=   None    Shift=    0.000
 RMSDP=2.23D-09 MaxDP=4.83D-08 DE= 9.09D-13 OVMax= 5.00D-08

 PCMQM: There is more than one cavity, setting IComp=0.
 Error on total polarization charges =  0.00673
 SCF Done:  E(RM062X) =  -348.480779183     A.U. after   12 cycles
            NFock= 12  Conv=0.22D-08     -V/T= 2.0082
 KE= 3.456297418378D+02 PE=-1.300718387648D+03 EE= 3.612264192693D+02
 SMD-CDS (non-electrostatic) energy       (kcal/mol) =       1.10
 (included in total energy above)
 Leave Link  502 at Mon May 16 16:23:43 2022, MaxMem=  2147483648 cpu:        58.8
 (Enter /gpfs/runtime/opt/gaussian/g09-D01/g09/l601.exe)
 Copying SCF densities to generalized density rwf, IOpCl= 0 IROHF=0.

 **********************************************************************

            Population analysis using the SCF density.

 **********************************************************************

 Orbital symmetries:
       Occupied  (A) (A) (A) (A) (A) (A) (A) (A) (A) (A) (A) (A)
                 (A) (A) (A) (A) (A) (A) (A) (A) (A) (A) (A)
       Virtual   (A) (A) (A) (A) (A) (A) (A) (A) (A) (A) (A) (A)
                 (A) (A) (A) (A) (A) (A) (A) (A) (A) (A) (A) (A)
                 (A) (A) (A) (A) (A) (A) (A) (A) (A) (A) (A) (A)
                 (A) (A) (A) (A) (A) (A) (A) (A) (A) (A) (A) (A)
                 (A) (A) (A) (A) (A) (A) (A) (A) (A) (A) (A) (A)
                 (A) (A) (A) (A) (A) (A) (A) (A) (A) (A) (A) (A)
                 (A) (A) (A) (A) (A) (A) (A) (A) (A) (A) (A) (A)
                 (A) (A) (A) (A) (A) (A) (A) (A) (A) (A) (A) (A)
                 (A) (A) (A) (A) (A) (A) (A) (A) (A) (A) (A) (A)
                 (A) (A) (A) (A) (A) (A) (A) (A) (A) (A) (A) (A)
 The electronic state is 1-A.
 Alpha  occ. eigenvalues --  -19.74452 -19.74450 -19.65532 -10.75610 -10.62364
 Alpha  occ. eigenvalues --  -10.62243  -2.22752  -1.34731  -1.22011  -1.17982
 Alpha  occ. eigenvalues --   -0.89635  -0.77357  -0.74680  -0.64612  -0.62845
 Alpha  occ. eigenvalues --   -0.56805  -0.54626  -0.50037  -0.49191  -0.48797
 Alpha  occ. eigenvalues --   -0.45148  -0.39811  -0.30949
 Alpha virt. eigenvalues --   -0.01961  -0.00130   0.00551   0.00589   0.01655
 Alpha virt. eigenvalues --    0.03843   0.03981   0.04709   0.05078   0.05301
 Alpha virt. eigenvalues --    0.05589   0.05668   0.06305   0.06671   0.08470
 Alpha virt. eigenvalues --    0.08791   0.11550   0.11725   0.13452   0.14294
 Alpha virt. eigenvalues --    0.15535   0.16579   0.18064   0.18406   0.19575
 Alpha virt. eigenvalues --    0.20154   0.22409   0.24142   0.25038   0.25864
 Alpha virt. eigenvalues --    0.26332   0.26624   0.28103   0.29304   0.29445
 Alpha virt. eigenvalues --    0.30364   0.30659   0.31366   0.34421   0.38644
 Alpha virt. eigenvalues --    0.39396   0.39566   0.40902   0.48624   0.51203
 Alpha virt. eigenvalues --    0.51220   0.51677   0.51686   0.53871   0.56891
 Alpha virt. eigenvalues --    0.58194   0.69645   0.71668   0.74050   0.74318
 Alpha virt. eigenvalues --    0.81518   0.89906   0.91299   0.92742   0.95380
 Alpha virt. eigenvalues --    1.02926   1.05468   1.17657   1.17893   1.21479
 Alpha virt. eigenvalues --    1.22177   1.25875   1.29150   1.30650   1.33276
 Alpha virt. eigenvalues --    1.35153   1.35385   1.35554   1.35678   1.37641
 Alpha virt. eigenvalues --    1.42085   1.44181   1.48331   1.48434   1.58508
 Alpha virt. eigenvalues --    1.59950   1.67697   1.79102   1.82054   1.84013
 Alpha virt. eigenvalues --    1.89765   1.92027   1.96395   1.98407   2.04545
 Alpha virt. eigenvalues --    2.09105   2.12604   2.13665   2.23463   2.23668
 Alpha virt. eigenvalues --    2.33474   2.35254   2.43937   2.53227   2.57338
 Alpha virt. eigenvalues --    2.64375   2.70335   2.72812   2.75076   2.78749
 Alpha virt. eigenvalues --    2.82121   2.93376   2.98783   3.05964   3.10149
 Alpha virt. eigenvalues --    3.22238   3.26092   3.40508   3.71903   4.19192
 Alpha virt. eigenvalues --    4.27607   4.56038   4.64391   4.66542   4.68182
          Condensed to atoms (all electrons):
               1          2          3          4          5          6
     1  O    8.302806   0.449627  -0.104774   0.015376   0.015383  -0.104776
     2  C    0.449627   4.651743   0.187321  -0.156819  -0.156838   0.187331
     3  O   -0.104774   0.187321   8.350040   0.195553  -0.072185  -0.165225
     4  C    0.015376  -0.156819   0.195553   5.009256   0.671623  -0.072176
     5  C    0.015383  -0.156838  -0.072185   0.671623   5.009342   0.195524
     6  O   -0.104776   0.187331  -0.165225  -0.072176   0.195524   8.350044
     7  H    0.000067   0.008606  -0.031490   0.374524  -0.019163   0.002347
     8  H    0.000067   0.008606   0.002346  -0.019159   0.374522  -0.031490
     9  Li  -0.000270  -0.000411   0.000305  -0.000946  -0.000945   0.000305
               7          8          9
     1  O    0.000067   0.000067  -0.000270
     2  C    0.008606   0.008606  -0.000411
     3  O   -0.031490   0.002346   0.000305
     4  C    0.374524  -0.019159  -0.000946
     5  C   -0.019163   0.374522  -0.000945
     6  O    0.002347  -0.031490   0.000305
     7  H    0.408417   0.000283   0.000904
     8  H    0.000283   0.408415   0.000904
     9  Li   0.000904   0.000904   2.000227
 Mulliken charges:
               1
     1  O   -0.573505
     2  C    0.820834
     3  O   -0.361891
     4  C   -0.017231
     5  C   -0.017264
     6  O   -0.361884
     7  H    0.255506
     8  H    0.255506
     9  Li   0.999928
 Sum of Mulliken charges =   1.00000
 Mulliken charges with hydrogens summed into heavy atoms:
               1
     1  O   -0.573505
     2  C    0.820834
     3  O   -0.361891
     4  C    0.238275
     5  C    0.238242
     6  O   -0.361884
     9  Li   0.999928
 Electronic spatial extent (au):  <R**2>=            594.9124
 Charge=              1.0000 electrons
 Dipole moment (field-independent basis, Debye):
    X=            -29.7958    Y=              0.0000    Z=              0.0074  Tot=             29.7958
 Quadrupole moment (field-independent basis, Debye-Ang):
   XX=             75.0323   YY=            -33.5495   ZZ=            -33.8477
   XY=              0.0000   XZ=             -0.0127   YZ=             -0.0116
 Traceless Quadrupole moment (field-independent basis, Debye-Ang):
   XX=             72.4873   YY=            -36.0945   ZZ=            -36.3928
   XY=              0.0000   XZ=             -0.0127   YZ=             -0.0116
 Octapole moment (field-independent basis, Debye-Ang**2):
  XXX=           -611.7070  YYY=              0.0001  ZZZ=             -0.0167  XYY=            -16.5730
  XXY=              0.0000  XXZ=              0.0326  XZZ=             -5.3312  YZZ=              0.0000
  YYZ=              0.0032  XYZ=              0.0152
 Hexadecapole moment (field-independent basis, Debye-Ang**3):
 XXXX=           2221.6779 YYYY=           -145.7044 ZZZZ=            -32.3403 XXXY=             -0.0001
 XXXZ=             -0.2426 YYYX=              0.0000 YYYZ=             -0.0118 ZZZX=              0.0190
 ZZZY=              0.0063 XXYY=            -80.9207 XXZZ=            -75.1613 YYZZ=            -30.3666
 XXYZ=             -0.0259 YYXZ=              0.0000 ZZXY=              0.0000
 N-N= 2.453814473587D+02 E-N=-1.300718387754D+03  KE= 3.456297418378D+02
 No NMR shielding tensors so no spin-rotation constants.
 Leave Link  601 at Mon May 16 16:23:43 2022, MaxMem=  2147483648 cpu:         2.5
 (Enter /gpfs/runtime/opt/gaussian/g09-D01/g09/l701.exe)
 Compute integral first derivatives.
 ... and contract with generalized density number  0.
 R6Disp: Adding Grimme-D3 dispersion energy 1st derivatives to the gradient.
 D1PCM: PCM CHGder 1st derivatives, ID1Alg=3 FixD1E=F DoIter=F DoCFld=F I1PDM=0.
 GePol: Maximum number of non-zero 1st derivatives   =     321
 Leave Link  701 at Mon May 16 16:23:45 2022, MaxMem=  2147483648 cpu:         9.1
 (Enter /gpfs/runtime/opt/gaussian/g09-D01/g09/l702.exe)
 L702 exits ... SP integral derivatives will be done elsewhere.
 Leave Link  702 at Mon May 16 16:23:45 2022, MaxMem=  2147483648 cpu:         0.1
 (Enter /gpfs/runtime/opt/gaussian/g09-D01/g09/l703.exe)
 Compute integral first derivatives, UseDBF=F ICtDFT=           0.
 Integral derivatives from FoFJK, PRISM(SPDF).
 Calling FoFJK, ICntrl=      2127 FMM=F ISym2X=0 I1Cent= 0 IOpClX= 0 NMat=1 NMatS=1 NMatT=0.
 FoFJK:  IHMeth= 1 ICntrl=    2127 DoSepK=F KAlg= 0 I1Cent=   0 FoldK=F
 IRaf=         0 NMat=   1 IRICut=       1 DoRegI=T DoRafI=F ISym2E= 0.
 FoFCou: FMM=F IPFlag=           0 FMFlag=      100000 FMFlg1=         800
         NFxFlg=           0 DoJE=F BraDBF=F KetDBF=F FulRan=T
         wScrn=  0.000000 ICntrl=    2127 IOpCl=  0 I1Cent=           0 NGrid=           0
         NMat0=    1 NMatS0=      1 NMatT0=    0 NMatD0=    1 NMtDS0=    0 NMtDT0=    0
 Symmetry not used in FoFCou.
 Leave Link  703 at Mon May 16 16:23:48 2022, MaxMem=  2147483648 cpu:         9.7
 (Enter /gpfs/runtime/opt/gaussian/g09-D01/g09/l716.exe)
 Dipole        =-1.17225528D+01 1.01759873D-05 2.90550075D-03
 ***** Axes restored to original set *****
 -------------------------------------------------------------------
 Center     Atomic                   Forces (Hartrees/Bohr)
 Number     Number              X              Y              Z
 -------------------------------------------------------------------
      1        8           0.027432239    0.000000259   -0.000198432
      2        6          -0.028592961   -0.000001958    0.000842302
      3        8          -0.014807245    0.020840227   -0.000123192
      4        6           0.024567410   -0.010852933   -0.000251468
      5        6           0.024565056    0.010851012    0.000433182
      6        8          -0.014805168   -0.020837217   -0.000676820
      7        1          -0.009011650    0.010994411   -0.000067539
      8        1          -0.009012212   -0.010993785    0.000042167
      9        3          -0.000335467   -0.000000016   -0.000000198
 -------------------------------------------------------------------
 Cartesian Forces:  Max     0.028592961 RMS     0.013229218
 Leave Link  716 at Mon May 16 16:23:48 2022, MaxMem=  2147483648 cpu:         0.2
 (Enter /gpfs/runtime/opt/gaussian/g09-D01/g09/l103.exe)

 GradGradGradGradGradGradGradGradGradGradGradGradGradGradGradGradGradGrad
 Berny optimization.
 FormGI is forming the generalized inverse of G from B-inverse, IUseBI=4.
 Internal  Forces:  Max     0.027432288 RMS     0.007199157
 Search for a local minimum.
 Step number   1 out of a maximum of   52
 All quantities printed in internal units (Hartrees-Bohrs-Radians)
 RMS Force = .71992D-02 SwitMx=.10000D-02 MixMth= 1
 Mixed Optimization -- RFO/linear search
 Second derivative matrix not updated -- first step.
 ITU=  0
     Eigenvalues ---    0.00328   0.01030   0.01941   0.01955   0.02284
     Eigenvalues ---    0.02378   0.02450   0.03178   0.17015   0.19839
     Eigenvalues ---    0.22671   0.24704   0.25000   0.35025   0.35553
     Eigenvalues ---    0.48335   0.48630   0.54239   0.56008   0.58540
     Eigenvalues ---    0.97314
 RFO step:  Lambda=-5.10202085D-03 EMin= 3.28216896D-03
 Linear search not attempted -- first point.
 Iteration  1 RMS(Cart)=  0.01900189 RMS(Int)=  0.00034143
 Iteration  2 RMS(Cart)=  0.00033751 RMS(Int)=  0.00009249
 Iteration  3 RMS(Cart)=  0.00000003 RMS(Int)=  0.00009249
 ITry= 1 IFail=0 DXMaxC= 6.50D-02 DCOld= 1.00D+10 DXMaxT= 3.00D-01 DXLimC= 3.00D+00 Rises=F
 Variable       Old X    -DE/DX   Delta X   Delta X   Delta X     New X
                                 (Linear)    (Quad)   (Total)
    R1        2.29734  -0.02743   0.00000  -0.02804  -0.02804   2.26930
    R2        2.53737   0.00867   0.00000   0.01517   0.01519   2.55256
    R3        2.53738   0.00866   0.00000   0.01516   0.01519   2.55256
    R4        2.56151   0.01791   0.00000   0.03293   0.03293   2.59443
    R5        2.50087   0.00816   0.00000   0.01341   0.01346   2.51433
    R6        2.04097  -0.00246   0.00000  -0.00659  -0.00654   2.03442
    R7        2.56152   0.01790   0.00000   0.03293   0.03291   2.59444
    R8        2.04097  -0.00246   0.00000  -0.00660  -0.00655   2.03442
    R9        6.17489   0.00084   0.00000   0.05800   0.05797   6.23286
   R10        6.17489   0.00084   0.00000   0.05800   0.05797   6.23286
    A1        2.20111  -0.00332   0.00000  -0.01248  -0.01255   2.18857
    A2        2.20111  -0.00332   0.00000  -0.01247  -0.01255   2.18857
    A3        1.88095   0.00664   0.00000   0.02502   0.02504   1.90599
    A4        1.88375  -0.00426   0.00000  -0.01823  -0.01818   1.86557
    A5        1.88816   0.00094   0.00000   0.00575   0.00566   1.89382
    A6        2.19754  -0.00813   0.00000  -0.04382  -0.04387   2.15367
    A7        2.19748   0.00718   0.00000   0.03808   0.03821   2.23570
    A8        1.88815   0.00095   0.00000   0.00576   0.00567   1.89382
    A9        2.19748   0.00718   0.00000   0.03808   0.03821   2.23570
   A10        2.19754  -0.00813   0.00000  -0.04382  -0.04388   2.15367
   A11        1.88374  -0.00426   0.00000  -0.01821  -0.01817   1.86557
   A12        2.10737  -0.00969   0.00000  -0.04563  -0.04557   2.06181
   A13        2.10737  -0.00969   0.00000  -0.04563  -0.04556   2.06181
   A14        0.81506   0.00500   0.00000   0.01510   0.01470   0.82977
    D1        3.14123   0.00025   0.00000   0.00844   0.00842  -3.13354
    D2        0.00424  -0.00022   0.00000  -0.00785  -0.00789  -0.00366
    D3        3.13939  -0.00013   0.00000  -0.00421  -0.00423   3.13516
    D4       -0.00681   0.00034   0.00000   0.01207   0.01208   0.00527
    D5        0.00001   0.00003   0.00000   0.00061   0.00054   0.00055
    D6        3.14103   0.00007   0.00000   0.00181   0.00168  -3.14047
    D7       -0.00422   0.00018   0.00000   0.00687   0.00692   0.00270
    D8        3.14102   0.00002   0.00000   0.00019   0.00011   3.14114
    D9        3.13794   0.00015   0.00000   0.00570   0.00575  -3.13950
   D10        0.00000  -0.00001   0.00000  -0.00098  -0.00106  -0.00107
   D11        3.14133  -0.00007   0.00000  -0.00198  -0.00191   3.13942
   D12       -0.00092  -0.00002   0.00000  -0.00059  -0.00056  -0.00148
   D13        0.00686  -0.00034   0.00000  -0.01185  -0.01177  -0.00491
   D14       -3.13838  -0.00013   0.00000  -0.00495  -0.00514   3.13966
   D15        0.00093   0.00004   0.00000   0.00195   0.00197   0.00290
   D16       -3.13638  -0.00018   0.00000  -0.00603  -0.00590   3.14090
   D17        0.00081   0.00002   0.00000   0.00086   0.00083   0.00164
   D18       -0.00082  -0.00003   0.00000  -0.00134  -0.00130  -0.00212
         Item               Value     Threshold  Converged?
 Maximum Force            0.027432     0.000450     NO 
 RMS     Force            0.007199     0.000300     NO 
 Maximum Displacement     0.064977     0.001800     NO 
 RMS     Displacement     0.018996     0.001200     NO 
 Predicted change in Energy=-2.611394D-03
 Lowest energy point so far.  Saving SCF results.
 GradGradGradGradGradGradGradGradGradGradGradGradGradGradGradGradGradGrad

 Leave Link  103 at Mon May 16 16:23:50 2022, MaxMem=  2147483648 cpu:        11.5
 (Enter /gpfs/runtime/opt/gaussian/g09-D01/g09/l202.exe)
                          Input orientation:                          
 ---------------------------------------------------------------------
 Center     Atomic      Atomic             Coordinates (Angstroms)
 Number     Number       Type             X           Y           Z
 ---------------------------------------------------------------------
      1          8           0       -1.914108    0.000005   -0.002182
      2          6           0       -0.713261   -0.000006    0.003545
      3          8           0        0.069151    1.101074    0.001769
      4          6           0        1.371057    0.665261   -0.000416
      5          6           0        1.371059   -0.665263   -0.000656
      6          8           0        0.069149   -1.101073   -0.002146
      7          1           0        2.218293    1.329484   -0.001150
      8          1           0        2.218295   -1.329484   -0.002533
      9          3           0        5.236766    0.000001   -0.000129
 ---------------------------------------------------------------------
                    Distance matrix (angstroms):
                    1          2          3          4          5
     1  O    0.000000
     2  C    1.200861   0.000000
     3  O    2.268411   1.350759   0.000000
     4  C    3.351847   2.187916   1.372915   0.000000
     5  C    3.351851   2.187916   2.194292   1.330525   0.000000
     6  O    2.268410   1.350759   2.202151   2.194289   1.372917
     7  H    4.340997   3.218940   2.161248   1.076570   2.167216
     8  H    4.341002   3.218939   3.244450   2.167216   1.076570
     9  Li   7.150874   5.950028   5.283617   3.922535   3.922534
                    6          7          8          9
     6  O    0.000000
     7  H    3.244446   0.000000
     8  H    2.161249   2.658969   0.000000
     9  Li   5.283619   3.298288   3.298288   0.000000
 Stoichiometry    C3H2LiO3(1+)
 Framework group  C1[X(C3H2LiO3)]
 Deg. of freedom    21
 Full point group                 C1      NOp   1
 RotChk:  IX=1 Diff= 1.87D-03
 Largest Abelian subgroup         C1      NOp   1
 Largest concise Abelian subgroup C1      NOp   1
                         Standard orientation:                         
 ---------------------------------------------------------------------
 Center     Atomic      Atomic             Coordinates (Angstroms)
 Number     Number       Type             X           Y           Z
 ---------------------------------------------------------------------
      1          8           0        2.299503    0.000001    0.001930
      2          6           0        1.098656   -0.000001   -0.003773
      3          8           0        0.316244    1.101076   -0.000528
      4          6           0       -0.985662    0.665261    0.001107
      5          6           0       -0.985664   -0.665263   -0.000409
      6          8           0        0.316245   -1.101075    0.000480
      7          1           0       -1.832898    1.329482    0.002735
      8          1           0       -1.832901   -1.329486    0.000608
      9          3           0       -4.851371    0.000003    0.000018
 ---------------------------------------------------------------------
 Rotational constants (GHZ):      9.5411834      1.6989930      1.4421863
 Leave Link  202 at Mon May 16 16:23:51 2022, MaxMem=  2147483648 cpu:         0.3
 (Enter /gpfs/runtime/opt/gaussian/g09-D01/g09/l301.exe)
 Standard basis: 6-31+G(d,p) (6D, 7F)
 Ernie: Thresh=  0.10000D-02 Tol=  0.10000D-05 Strict=F.
 There are   143 symmetry adapted cartesian basis functions of A   symmetry.
 There are   143 symmetry adapted basis functions of A   symmetry.
   143 basis functions,   238 primitive gaussians,   143 cartesian basis functions
    23 alpha electrons       23 beta electrons
       nuclear repulsion energy       244.5238724019 Hartrees.
 IExCor= 4336 DFT=T Ex+Corr=M062X ExCW=0 ScaHFX=  0.540000
 ScaDFX=  1.000000  1.000000  1.000000  1.000000 ScalE2=  1.000000  1.000000
 IRadAn=      0 IRanWt=     -1 IRanGd=            0 ICorTp=0 IEmpDi=131
 NAtoms=    9 NActive=    9 NUniq=    9 SFac= 1.00D+00 NAtFMM=   60 NAOKFM=F Big=F
 Integral buffers will be    131072 words long.
 Raffenetti 2 integral format.
 Two-electron integral symmetry is turned on.
 R6Disp:  Grimme-D3 Dispersion energy=       -0.0001841876 Hartrees.
 Nuclear repulsion after empirical dispersion term =      244.5236882143 Hartrees.
 ------------------------------------------------------------------------------
 Polarizable Continuum Model (PCM)
 =================================
 Model                : PCM (using non-symmetric T matrix).
 Atomic radii         : SMD-Coulomb.
 Polarization charges : Total charges.
 Charge compensation  : None.
 Solution method      : On-the-fly selection.
 Cavity type          : VdW (van der Waals Surface) (Alpha=1.000).
 Cavity algorithm     : GePol (No added spheres)
                        Default sphere list used, NSphG=    9.
                        Lebedev-Laikov grids with approx.  5.0 points / Ang**2.
                        Smoothing algorithm: Karplus/York (Gamma=1.0000).
                        Polarization charges: spherical gaussians, with
                                              point-specific exponents (IZeta= 3).
                        Self-potential: point-specific (ISelfS= 7).
                        Self-field    : sphere-specific E.n sum rule (ISelfD= 2).
 1st derivatives      : Analytical E(r).r(x)/FMM algorithm (CHGder, D1EAlg=3).
                        Cavity 1st derivative terms included.
 Solvent              : DiMethylSulfoxide, Eps=  46.826000 Eps(inf)=   2.007889
 ------------------------------------------------------------------------------
 Spheres list:
 ISph  on   Nord     Re0    Alpha      Xe            Ye            Ze
    1   O      1    2.2940  1.000      2.299503      0.000001      0.001930
    2   C      2    1.8500  1.000      1.098656     -0.000001     -0.003773
    3   O      3    2.2940  1.000      0.316244      1.101076     -0.000528
    4   C      4    1.8500  1.000     -0.985662      0.665261      0.001107
    5   C      5    1.8500  1.000     -0.985664     -0.665263     -0.000409
    6   O      6    2.2940  1.000      0.316245     -1.101075      0.000480
    7   H      7    1.2000  1.000     -1.832898      1.329482      0.002735
    8   H      8    1.2000  1.000     -1.832901     -1.329486      0.000608
    9  Li      9    1.8200  1.000     -4.851371      0.000003      0.000018
 ------------------------------------------------------------------------------
 Separa: There are  2 disjoint cavities,
 GePol: Number of generator spheres                  =       9
 GePol: Total number of spheres                      =       9
 GePol: Number of exposed spheres                    =       9 (100.00%)
 GePol: Number of points                             =    1309
 GePol: Average weight of points                     =       0.13
 GePol: Minimum weight of points                     =   0.18D-06
 GePol: Maximum weight of points                     =    0.17992
 GePol: Number of points with low weight             =      31
 GePol: Fraction of low-weight points (<1% of avg)   =       2.37%
 ------------------------------------------------------------------------------
 Atomic radii for non-electrostatic terms: SMD-CDS.
 ------------------------------------------------------------------------------
 PCM non-electrostatic energy =         0.0017812375 Hartrees.
 Nuclear repulsion after PCM non-electrostatic terms =      244.5254694518 Hartrees.
 Leave Link  301 at Mon May 16 16:23:51 2022, MaxMem=  2147483648 cpu:         0.4
 (Enter /gpfs/runtime/opt/gaussian/g09-D01/g09/l302.exe)
 NPDir=0 NMtPBC=     1 NCelOv=     1 NCel=       1 NClECP=     1 NCelD=      1
         NCelK=      1 NCelE2=     1 NClLst=     1 CellRange=     0.0.
 One-electron integrals computed using PRISM.
 NBasis=   143 RedAO= T EigKep=  7.84D-05  NBF=   143
 NBsUse=   143 1.00D-06 EigRej= -1.00D+00 NBFU=   143
 Precomputing XC quadrature grid using
 IXCGrd= 4 IRadAn=           0 IRanWt=          -1 IRanGd=           0 AccXCQ= 0.00D+00.
 Generated NRdTot=       0 NPtTot=           0 NUsed=           0 NTot=          32
 NSgBfM=   143   143   143   143   143 MxSgAt=     9 MxSgA2=     9.
 Leave Link  302 at Mon May 16 16:23:52 2022, MaxMem=  2147483648 cpu:         4.4
 (Enter /gpfs/runtime/opt/gaussian/g09-D01/g09/l303.exe)
 DipDrv:  MaxL=1.
 Leave Link  303 at Mon May 16 16:23:52 2022, MaxMem=  2147483648 cpu:         0.7
 (Enter /gpfs/runtime/opt/gaussian/g09-D01/g09/l401.exe)
 Initial guess from the checkpoint file:  "/gpfs/data/yqi27/cgu13/CHEM1560Q/Gaussian/872-36-6/inp1/Gau-214182.chk"
 B after Tr=     0.000000    0.000000    0.000000
         Rot=    1.000000   -0.000047    0.000034    0.000000 Ang=  -0.01 deg.
 Guess basis will be translated and rotated to current coordinates.
 JPrj=2 DoOrth=T DoCkMO=T.
 Generating alternative initial guess.
 ExpMin= 7.40D-03 ExpMax= 5.48D+03 ExpMxC= 8.25D+02 IAcc=3 IRadAn=         5 AccDes= 0.00D+00
 Harris functional with IExCor= 1009 and IRadAn=       5 diagonalized for initial guess.
 HarFok:  IExCor= 1009 AccDes= 0.00D+00 IRadAn=         5 IDoV= 1 UseB2=F ITyADJ=14
 ICtDFT=  3500011 ScaDFX=  1.000000  1.000000  1.000000  1.000000
 FoFCou: FMM=F IPFlag=           0 FMFlag=      100000 FMFlg1=           0
         NFxFlg=           0 DoJE=T BraDBF=F KetDBF=T FulRan=T
         wScrn=  0.000000 ICntrl=     500 IOpCl=  0 I1Cent=   200000004 NGrid=           0
         NMat0=    1 NMatS0=      1 NMatT0=    0 NMatD0=    1 NMtDS0=    0 NMtDT0=    0
 Petite list used in FoFCou.
 Harris En= -348.213550963939    
 Leave Link  401 at Mon May 16 16:23:55 2022, MaxMem=  2147483648 cpu:        11.8
 (Enter /gpfs/runtime/opt/gaussian/g09-D01/g09/l502.exe)
 Closed shell SCF:
 Using DIIS extrapolation, IDIIS=  1040.
 Integral symmetry usage will be decided dynamically.
 Keep R1 ints in memory in canonical form, NReq=57953259.
 IVT=       82101 IEndB=       82101 NGot=  2147483648 MDV=  2094392592
 LenX=  2094392592 LenY=  2094371702
 Requested convergence on RMS density matrix=1.00D-08 within 128 cycles.
 Requested convergence on MAX density matrix=1.00D-06.
 Requested convergence on             energy=1.00D-06.
 No special actions if energy rises.
 FoFCou: FMM=F IPFlag=           0 FMFlag=           0 FMFlg1=           0
         NFxFlg=           0 DoJE=F BraDBF=F KetDBF=F FulRan=T
         wScrn=  0.000000 ICntrl=     600 IOpCl=  0 I1Cent=           0 NGrid=           0
         NMat0=    1 NMatS0=  10296 NMatT0=    0 NMatD0=    1 NMtDS0=    0 NMtDT0=    0
 Symmetry not used in FoFCou.

 Cycle   1  Pass 1  IDiag  1:
 PCMQM: There is more than one cavity, setting IComp=0.
 Inv3:  Mode=1 IEnd=     5140443.
 Iteration    1 A*A^-1 deviation from unit magnitude is 5.77D-15 for    102.
 Iteration    1 A*A^-1 deviation from orthogonality  is 4.47D-15 for    504     85.
 Iteration    1 A^-1*A deviation from unit magnitude is 5.88D-15 for   1209.
 Iteration    1 A^-1*A deviation from orthogonality  is 5.69D-15 for   1261   1257.
 E= -348.483490642711    
 DIIS: error= 1.36D-03 at cycle   1 NSaved=   1.
 NSaved= 1 IEnMin= 1 EnMin= -348.483490642711     IErMin= 1 ErrMin= 1.36D-03
 ErrMax= 1.36D-03  0.00D+00 EMaxC= 1.00D-01 BMatC= 5.43D-04 BMatP= 5.43D-04
 IDIUse=3 WtCom= 9.86D-01 WtEn= 1.36D-02
 Coeff-Com:  0.100D+01
 Coeff-En:   0.100D+01
 Coeff:      0.100D+01
 Gap=     0.627 Goal=   None    Shift=    0.000
 GapD=    0.627 DampG=2.000 DampE=1.000 DampFc=2.0000 IDamp=-1.
 RMSDP=3.81D-04 MaxDP=6.00D-03              OVMax= 7.47D-03

 Cycle   2  Pass 1  IDiag  1:
 PCMQM: There is more than one cavity, setting IComp=0.
 E= -348.484241732213     Delta-E=       -0.000751089502 Rises=F Damp=F
 DIIS: error= 5.26D-04 at cycle   2 NSaved=   2.
 NSaved= 2 IEnMin= 2 EnMin= -348.484241732213     IErMin= 2 ErrMin= 5.26D-04
 ErrMax= 5.26D-04  0.00D+00 EMaxC= 1.00D-01 BMatC= 3.79D-05 BMatP= 5.43D-04
 IDIUse=3 WtCom= 9.95D-01 WtEn= 5.26D-03
 Coeff-Com:  0.282D-01 0.972D+00
 Coeff-En:   0.000D+00 0.100D+01
 Coeff:      0.281D-01 0.972D+00
 Gap=     0.291 Goal=   None    Shift=    0.000
 RMSDP=8.50D-05 MaxDP=2.12D-03 DE=-7.51D-04 OVMax= 5.54D-03

 Cycle   3  Pass 1  IDiag  1:
 PCMQM: There is more than one cavity, setting IComp=0.
 E= -348.484265249693     Delta-E=       -0.000023517480 Rises=F Damp=F
 DIIS: error= 4.62D-04 at cycle   3 NSaved=   3.
 NSaved= 3 IEnMin= 3 EnMin= -348.484265249693     IErMin= 3 ErrMin= 4.62D-04
 ErrMax= 4.62D-04  0.00D+00 EMaxC= 1.00D-01 BMatC= 4.25D-05 BMatP= 3.79D-05
 IDIUse=3 WtCom= 3.18D-01 WtEn= 6.82D-01
 Coeff-Com: -0.663D-01 0.536D+00 0.530D+00
 Coeff-En:   0.000D+00 0.247D+00 0.753D+00
 Coeff:     -0.211D-01 0.339D+00 0.683D+00
 Gap=     0.291 Goal=   None    Shift=    0.000
 RMSDP=5.63D-05 MaxDP=1.55D-03 DE=-2.35D-05 OVMax= 1.97D-03

 Cycle   4  Pass 1  IDiag  1:
 PCMQM: There is more than one cavity, setting IComp=0.
 E= -348.484286172666     Delta-E=       -0.000020922973 Rises=F Damp=F
 DIIS: error= 3.26D-04 at cycle   4 NSaved=   4.
 NSaved= 4 IEnMin= 4 EnMin= -348.484286172666     IErMin= 4 ErrMin= 3.26D-04
 ErrMax= 3.26D-04  0.00D+00 EMaxC= 1.00D-01 BMatC= 1.48D-05 BMatP= 3.79D-05
 IDIUse=3 WtCom= 9.97D-01 WtEn= 3.26D-03
 Coeff-Com: -0.240D-01 0.491D-01 0.394D+00 0.581D+00
 Coeff-En:   0.000D+00 0.000D+00 0.258D+00 0.742D+00
 Coeff:     -0.239D-01 0.489D-01 0.394D+00 0.581D+00
 Gap=     0.291 Goal=   None    Shift=    0.000
 RMSDP=2.29D-05 MaxDP=8.93D-04 DE=-2.09D-05 OVMax= 1.30D-03

 Cycle   5  Pass 1  IDiag  1:
 PCMQM: There is more than one cavity, setting IComp=0.
 E= -348.484297593369     Delta-E=       -0.000011420703 Rises=F Damp=F
 DIIS: error= 3.89D-05 at cycle   5 NSaved=   5.
 NSaved= 5 IEnMin= 5 EnMin= -348.484297593369     IErMin= 5 ErrMin= 3.89D-05
 ErrMax= 3.89D-05  0.00D+00 EMaxC= 1.00D-01 BMatC= 3.48D-07 BMatP= 1.48D-05
 IDIUse=1 WtCom= 1.00D+00 WtEn= 0.00D+00
 Coeff-Com: -0.602D-03-0.496D-01 0.812D-01 0.248D+00 0.721D+00
 Coeff:     -0.602D-03-0.496D-01 0.812D-01 0.248D+00 0.721D+00
 Gap=     0.291 Goal=   None    Shift=    0.000
 RMSDP=5.52D-06 MaxDP=1.23D-04 DE=-1.14D-05 OVMax= 3.03D-04

 Cycle   6  Pass 1  IDiag  1:
 PCMQM: There is more than one cavity, setting IComp=0.
 E= -348.484297952082     Delta-E=       -0.000000358713 Rises=F Damp=F
 DIIS: error= 1.55D-05 at cycle   6 NSaved=   6.
 NSaved= 6 IEnMin= 6 EnMin= -348.484297952082     IErMin= 6 ErrMin= 1.55D-05
 ErrMax= 1.55D-05  0.00D+00 EMaxC= 1.00D-01 BMatC= 3.18D-08 BMatP= 3.48D-07
 IDIUse=1 WtCom= 1.00D+00 WtEn= 0.00D+00
 Coeff-Com:  0.306D-02-0.218D-01-0.367D-01 0.446D-02 0.207D+00 0.844D+00
 Coeff:      0.306D-02-0.218D-01-0.367D-01 0.446D-02 0.207D+00 0.844D+00
 Gap=     0.291 Goal=   None    Shift=    0.000
 RMSDP=2.07D-06 MaxDP=4.41D-05 DE=-3.59D-07 OVMax= 1.20D-04

 Cycle   7  Pass 1  IDiag  1:
 PCMQM: There is more than one cavity, setting IComp=0.
 E= -348.484297991298     Delta-E=       -0.000000039216 Rises=F Damp=F
 DIIS: error= 5.13D-06 at cycle   7 NSaved=   7.
 NSaved= 7 IEnMin= 7 EnMin= -348.484297991298     IErMin= 7 ErrMin= 5.13D-06
 ErrMax= 5.13D-06  0.00D+00 EMaxC= 1.00D-01 BMatC= 4.53D-09 BMatP= 3.18D-08
 IDIUse=1 WtCom= 1.00D+00 WtEn= 0.00D+00
 Coeff-Com:  0.115D-02-0.357D-02-0.231D-01-0.173D-01 0.142D-01 0.329D+00
 Coeff-Com:  0.699D+00
 Coeff:      0.115D-02-0.357D-02-0.231D-01-0.173D-01 0.142D-01 0.329D+00
 Coeff:      0.699D+00
 Gap=     0.291 Goal=   None    Shift=    0.000
 RMSDP=7.06D-07 MaxDP=1.51D-05 DE=-3.92D-08 OVMax= 2.67D-05

 Cycle   8  Pass 1  IDiag  1:
 PCMQM: There is more than one cavity, setting IComp=0.
 E= -348.484297996131     Delta-E=       -0.000000004833 Rises=F Damp=F
 DIIS: error= 1.39D-06 at cycle   8 NSaved=   8.
 NSaved= 8 IEnMin= 8 EnMin= -348.484297996131     IErMin= 8 ErrMin= 1.39D-06
 ErrMax= 1.39D-06  0.00D+00 EMaxC= 1.00D-01 BMatC= 3.94D-10 BMatP= 4.53D-09
 IDIUse=1 WtCom= 1.00D+00 WtEn= 0.00D+00
 Coeff-Com: -0.112D-03 0.239D-02-0.144D-02-0.415D-02-0.263D-01-0.436D-01
 Coeff-Com:  0.182D+00 0.892D+00
 Coeff:     -0.112D-03 0.239D-02-0.144D-02-0.415D-02-0.263D-01-0.436D-01
 Coeff:      0.182D+00 0.892D+00
 Gap=     0.291 Goal=   None    Shift=    0.000
 RMSDP=2.63D-07 MaxDP=5.70D-06 DE=-4.83D-09 OVMax= 1.35D-05

 Cycle   9  Pass 1  IDiag  1:
 PCMQM: There is more than one cavity, setting IComp=0.
 E= -348.484297996609     Delta-E=       -0.000000000478 Rises=F Damp=F
 DIIS: error= 2.97D-07 at cycle   9 NSaved=   9.
 NSaved= 9 IEnMin= 9 EnMin= -348.484297996609     IErMin= 9 ErrMin= 2.97D-07
 ErrMax= 2.97D-07  0.00D+00 EMaxC= 1.00D-01 BMatC= 1.79D-11 BMatP= 3.94D-10
 IDIUse=1 WtCom= 1.00D+00 WtEn= 0.00D+00
 Coeff-Com: -0.103D-03 0.903D-03 0.108D-02 0.351D-04-0.838D-02-0.357D-01
 Coeff-Com:  0.432D-02 0.235D+00 0.803D+00
 Coeff:     -0.103D-03 0.903D-03 0.108D-02 0.351D-04-0.838D-02-0.357D-01
 Coeff:      0.432D-02 0.235D+00 0.803D+00
 Gap=     0.291 Goal=   None    Shift=    0.000
 RMSDP=6.76D-08 MaxDP=1.71D-06 DE=-4.78D-10 OVMax= 2.10D-06

 Cycle  10  Pass 1  IDiag  1:
 PCMQM: There is more than one cavity, setting IComp=0.
 E= -348.484297996632     Delta-E=       -0.000000000023 Rises=F Damp=F
 DIIS: error= 6.60D-08 at cycle  10 NSaved=  10.
 NSaved=10 IEnMin=10 EnMin= -348.484297996632     IErMin=10 ErrMin= 6.60D-08
 ErrMax= 6.60D-08  0.00D+00 EMaxC= 1.00D-01 BMatC= 8.29D-13 BMatP= 1.79D-11
 IDIUse=1 WtCom= 1.00D+00 WtEn= 0.00D+00
 Coeff-Com:  0.918D-06-0.123D-03 0.229D-03 0.395D-03 0.143D-02 0.749D-03
 Coeff-Com: -0.149D-01-0.552D-01 0.103D+00 0.964D+00
 Coeff:      0.918D-06-0.123D-03 0.229D-03 0.395D-03 0.143D-02 0.749D-03
 Coeff:     -0.149D-01-0.552D-01 0.103D+00 0.964D+00
 Gap=     0.291 Goal=   None    Shift=    0.000
 RMSDP=1.73D-08 MaxDP=3.77D-07 DE=-2.27D-11 OVMax= 4.67D-07

 Cycle  11  Pass 1  IDiag  1:
 PCMQM: There is more than one cavity, setting IComp=0.
 E= -348.484297996636     Delta-E=       -0.000000000004 Rises=F Damp=F
 DIIS: error= 9.79D-09 at cycle  11 NSaved=  11.
 NSaved=11 IEnMin=11 EnMin= -348.484297996636     IErMin=11 ErrMin= 9.79D-09
 ErrMax= 9.79D-09  0.00D+00 EMaxC= 1.00D-01 BMatC= 1.56D-14 BMatP= 8.29D-13
 IDIUse=1 WtCom= 1.00D+00 WtEn= 0.00D+00
 Coeff-Com:  0.271D-05-0.260D-04-0.238D-04 0.176D-04 0.201D-03 0.101D-02
 Coeff-Com: -0.454D-03-0.595D-02-0.205D-01 0.152D-02 0.102D+01
 Coeff:      0.271D-05-0.260D-04-0.238D-04 0.176D-04 0.201D-03 0.101D-02
 Coeff:     -0.454D-03-0.595D-02-0.205D-01 0.152D-02 0.102D+01
 Gap=     0.291 Goal=   None    Shift=    0.000
 RMSDP=2.95D-09 MaxDP=6.67D-08 DE=-4.32D-12 OVMax= 8.46D-08

 PCMQM: There is more than one cavity, setting IComp=0.
 Error on total polarization charges =  0.00670
 SCF Done:  E(RM062X) =  -348.484297997     A.U. after   11 cycles
            NFock= 11  Conv=0.30D-08     -V/T= 2.0084
 KE= 3.455704498670D+02 PE=-1.299025198587D+03 EE= 3.604449812716D+02
 SMD-CDS (non-electrostatic) energy       (kcal/mol) =       1.12
 (included in total energy above)
 Leave Link  502 at Mon May 16 16:24:01 2022, MaxMem=  2147483648 cpu:        41.3
 (Enter /gpfs/runtime/opt/gaussian/g09-D01/g09/l701.exe)
 Compute integral first derivatives.
 ... and contract with generalized density number  0.
 R6Disp: Adding Grimme-D3 dispersion energy 1st derivatives to the gradient.
 D1PCM: PCM CHGder 1st derivatives, ID1Alg=3 FixD1E=F DoIter=F DoCFld=F I1PDM=0.
 GePol: Maximum number of non-zero 1st derivatives   =     321
 Leave Link  701 at Mon May 16 16:24:04 2022, MaxMem=  2147483648 cpu:        11.4
 (Enter /gpfs/runtime/opt/gaussian/g09-D01/g09/l702.exe)
 L702 exits ... SP integral derivatives will be done elsewhere.
 Leave Link  702 at Mon May 16 16:24:04 2022, MaxMem=  2147483648 cpu:         0.1
 (Enter /gpfs/runtime/opt/gaussian/g09-D01/g09/l703.exe)
 Compute integral first derivatives, UseDBF=F ICtDFT=           0.
 Integral derivatives from FoFJK, PRISM(SPDF).
 Calling FoFJK, ICntrl=      2127 FMM=F ISym2X=0 I1Cent= 0 IOpClX= 0 NMat=1 NMatS=1 NMatT=0.
 FoFJK:  IHMeth= 1 ICntrl=    2127 DoSepK=F KAlg= 0 I1Cent=   0 FoldK=F
 IRaf=         0 NMat=   1 IRICut=       1 DoRegI=T DoRafI=F ISym2E= 0.
 FoFCou: FMM=F IPFlag=           0 FMFlag=      100000 FMFlg1=         800
         NFxFlg=           0 DoJE=F BraDBF=F KetDBF=F FulRan=T
         wScrn=  0.000000 ICntrl=    2127 IOpCl=  0 I1Cent=           0 NGrid=           0
         NMat0=    1 NMatS0=      1 NMatT0=    0 NMatD0=    1 NMtDS0=    0 NMtDT0=    0
 Symmetry not used in FoFCou.
 Leave Link  703 at Mon May 16 16:24:06 2022, MaxMem=  2147483648 cpu:         9.7
 (Enter /gpfs/runtime/opt/gaussian/g09-D01/g09/l716.exe)
 Dipole        =-1.16599114D+01 4.03509087D-06-4.49300981D-03
 ***** Axes restored to original set *****
 -------------------------------------------------------------------
 Center     Atomic                   Forces (Hartrees/Bohr)
 Number     Number              X              Y              Z
 -------------------------------------------------------------------
      1        8           0.004313198   -0.000001042    0.000673701
      2        6          -0.010769549    0.000003010   -0.001820241
      3        8          -0.002289624    0.003026724    0.000453086
      4        6           0.010694000   -0.013698762    0.000145909
      5        6           0.010692669    0.013699034   -0.000320663
      6        8          -0.002289131   -0.003029015    0.000787563
      7        1          -0.004979052    0.008814261    0.000067028
      8        1          -0.004978982   -0.008814214    0.000013887
      9        3          -0.000393529    0.000000004   -0.000000271
 -------------------------------------------------------------------
 Cartesian Forces:  Max     0.013699034 RMS     0.006016209
 Leave Link  716 at Mon May 16 16:24:06 2022, MaxMem=  2147483648 cpu:         0.2
 (Enter /gpfs/runtime/opt/gaussian/g09-D01/g09/l103.exe)

 GradGradGradGradGradGradGradGradGradGradGradGradGradGradGradGradGradGrad
 Berny optimization.
 Using GEDIIS/GDIIS optimizer.
 FormGI is forming the generalized inverse of G from B-inverse, IUseBI=4.
 Internal  Forces:  Max     0.007025341 RMS     0.002954647
 Search for a local minimum.
 Step number   2 out of a maximum of   52
 All quantities printed in internal units (Hartrees-Bohrs-Radians)
 RMS Force = .29546D-02 SwitMx=.10000D-02 MixMth= 1
 Mixed Optimization -- RFO/linear search
 Update second derivatives using D2CorX and points    1    2
 DE= -3.52D-03 DEPred=-2.61D-03 R= 1.35D+00
 TightC=F SS=  1.41D+00  RLast= 1.54D-01 DXNew= 5.0454D-01 4.6282D-01
 Trust test= 1.35D+00 RLast= 1.54D-01 DXMaxT set to 4.63D-01
 ITU=  1  0
 Use linear search instead of GDIIS.
     Eigenvalues ---    0.00330   0.01015   0.01982   0.01985   0.02309
     Eigenvalues ---    0.02398   0.02466   0.03087   0.10414   0.16980
     Eigenvalues ---    0.22660   0.24999   0.28147   0.35113   0.35683
     Eigenvalues ---    0.48795   0.48848   0.51058   0.56027   0.62663
     Eigenvalues ---    1.00885
 RFO step:  Lambda=-2.00180692D-03 EMin= 3.29634959D-03
 Quartic linear search produced a step of  0.63005.
 Iteration  1 RMS(Cart)=  0.02549006 RMS(Int)=  0.00091991
 Iteration  2 RMS(Cart)=  0.00084002 RMS(Int)=  0.00029529
 Iteration  3 RMS(Cart)=  0.00000040 RMS(Int)=  0.00029529
 ITry= 1 IFail=0 DXMaxC= 9.48D-02 DCOld= 1.00D+10 DXMaxT= 4.63D-01 DXLimC= 3.00D+00 Rises=F
 Variable       Old X    -DE/DX   Delta X   Delta X   Delta X     New X
                                 (Linear)    (Quad)   (Total)
    R1        2.26930  -0.00432  -0.01767  -0.00022  -0.01789   2.25141
    R2        2.55256   0.00187   0.00957   0.00245   0.01209   2.56465
    R3        2.55256   0.00187   0.00957   0.00246   0.01208   2.56464
    R4        2.59443   0.00619   0.02074   0.01001   0.03074   2.62517
    R5        2.51433  -0.00347   0.00848  -0.01375  -0.00509   2.50923
    R6        2.03442   0.00038  -0.00412   0.00306  -0.00090   2.03352
    R7        2.59444   0.00619   0.02074   0.01001   0.03072   2.62516
    R8        2.03442   0.00038  -0.00412   0.00306  -0.00090   2.03352
    R9        6.23286   0.00047   0.03652   0.05635   0.09277   6.32564
   R10        6.23286   0.00047   0.03652   0.05635   0.09277   6.32563
    A1        2.18857   0.00158  -0.00791   0.01243   0.00385   2.19242
    A2        2.18857   0.00158  -0.00790   0.01243   0.00385   2.19242
    A3        1.90599  -0.00314   0.01578  -0.02409  -0.00871   1.89728
    A4        1.86557   0.00199  -0.01145   0.01705   0.00579   1.87136
    A5        1.89382  -0.00042   0.00357  -0.00493  -0.00154   1.89228
    A6        2.15367  -0.00530  -0.02764  -0.03337  -0.06121   2.09246
    A7        2.23570   0.00572   0.02408   0.03830   0.06275   2.29844
    A8        1.89382  -0.00042   0.00357  -0.00490  -0.00154   1.89227
    A9        2.23570   0.00572   0.02408   0.03831   0.06275   2.29844
   A10        2.15367  -0.00530  -0.02764  -0.03337  -0.06122   2.09245
   A11        1.86557   0.00199  -0.01145   0.01707   0.00579   1.87135
   A12        2.06181  -0.00703  -0.02871  -0.04419  -0.07269   1.98912
   A13        2.06181  -0.00703  -0.02871  -0.04419  -0.07269   1.98912
   A14        0.82977   0.00262   0.00926   0.01179   0.01987   0.84963
    D1       -3.13354  -0.00064   0.00530  -0.04150  -0.03619   3.11345
    D2       -0.00366   0.00041  -0.00497   0.02821   0.02304   0.01939
    D3        3.13516   0.00057  -0.00266   0.03585   0.03317  -3.11485
    D4        0.00527  -0.00048   0.00761  -0.03386  -0.02606  -0.02079
    D5        0.00055  -0.00018   0.00034  -0.01132  -0.01098  -0.01043
    D6       -3.14047  -0.00015   0.00106  -0.00882  -0.00786   3.13486
    D7        0.00270  -0.00012   0.00436  -0.00946  -0.00505  -0.00235
    D8        3.14114   0.00005   0.00007   0.00500   0.00539  -3.13666
    D9       -3.13950  -0.00015   0.00362  -0.01215  -0.00873   3.13496
   D10       -0.00107   0.00002  -0.00067   0.00231   0.00171   0.00065
   D11        3.13942   0.00000  -0.00121   0.00343   0.00222  -3.14155
   D12       -0.00148   0.00004  -0.00035   0.00647   0.00622   0.00474
   D13       -0.00491   0.00036  -0.00741   0.02651   0.01915   0.01425
   D14        3.13966   0.00017  -0.00324   0.01273   0.00990  -3.13362
   D15        0.00290  -0.00007   0.00124  -0.00959  -0.00845  -0.00556
   D16        3.14090   0.00013  -0.00372   0.00691   0.00310  -3.13918
   D17        0.00164  -0.00005   0.00052  -0.00642  -0.00574  -0.00409
   D18       -0.00212   0.00006  -0.00082   0.00749   0.00647   0.00435
         Item               Value     Threshold  Converged?
 Maximum Force            0.007025     0.000450     NO 
 RMS     Force            0.002955     0.000300     NO 
 Maximum Displacement     0.094779     0.001800     NO 
 RMS     Displacement     0.025397     0.001200     NO 
 Predicted change in Energy=-1.605132D-03
 Lowest energy point so far.  Saving SCF results.
 GradGradGradGradGradGradGradGradGradGradGradGradGradGradGradGradGradGrad

 Leave Link  103 at Mon May 16 16:24:09 2022, MaxMem=  2147483648 cpu:        12.2
 (Enter /gpfs/runtime/opt/gaussian/g09-D01/g09/l202.exe)
                          Input orientation:                          
 ---------------------------------------------------------------------
 Center     Atomic      Atomic             Coordinates (Angstroms)
 Number     Number       Type             X           Y           Z
 ---------------------------------------------------------------------
      1          8           0       -1.909884   -0.000008    0.009519
      2          6           0       -0.718728    0.000001   -0.014254
      3          8           0        0.072063    1.102859    0.000626
      4          6           0        1.390073    0.663916   -0.000524
      5          6           0        1.390073   -0.663911   -0.002517
      6          8           0        0.072071   -1.102849    0.000409
      7          1           0        2.193631    1.379634    0.003697
      8          1           0        2.193628   -1.379639    0.000076
      9          3           0        5.243474   -0.000003   -0.000931
 ---------------------------------------------------------------------
                    Distance matrix (angstroms):
                    1          2          3          4          5
     1  O    0.000000
     2  C    1.191394   0.000000
     3  O    2.268151   1.357154   0.000000
     4  C    3.366098   2.210885   1.389181   0.000000
     5  C    3.366100   2.210872   2.204231   1.327829   0.000000
     6  O    2.268146   1.357150   2.205708   2.204221   1.389174
     7  H    4.329236   3.222660   2.139547   1.076092   2.195864
     8  H    4.329236   3.222643   3.265553   2.195864   1.076092
     9  Li   7.153366   5.962217   5.287703   3.910177   3.910177
                    6          7          8          9
     6  O    0.000000
     7  H    3.265539   0.000000
     8  H    2.139537   2.759275   0.000000
     9  Li   5.287692   3.347382   3.347381   0.000000
 Stoichiometry    C3H2LiO3(1+)
 Framework group  C1[X(C3H2LiO3)]
 Deg. of freedom    21
 Full point group                 C1      NOp   1
 RotChk:  IX=0 Diff= 1.59D-03
 Largest Abelian subgroup         C1      NOp   1
 Largest concise Abelian subgroup C1      NOp   1
                         Standard orientation:                         
 ---------------------------------------------------------------------
 Center     Atomic      Atomic             Coordinates (Angstroms)
 Number     Number       Type             X           Y           Z
 ---------------------------------------------------------------------
      1          8           0        2.300534   -0.000004   -0.008142
      2          6           0        1.109359   -0.000007    0.014716
      3          8           0        0.318580    1.102859   -0.000198
      4          6           0       -0.999431    0.663915   -0.000289
      5          6           0       -0.999432   -0.663913    0.001013
      6          8           0        0.318572   -1.102849   -0.001128
      7          1           0       -1.802985    1.379635   -0.004756
      8          1           0       -1.802984   -1.379639   -0.002569
      9          3           0       -4.852831   -0.000003   -0.003188
 ---------------------------------------------------------------------
 Rotational constants (GHZ):      9.4768130      1.6936146      1.4368667
 Leave Link  202 at Mon May 16 16:24:10 2022, MaxMem=  2147483648 cpu:         0.3
 (Enter /gpfs/runtime/opt/gaussian/g09-D01/g09/l301.exe)
 Standard basis: 6-31+G(d,p) (6D, 7F)
 Ernie: Thresh=  0.10000D-02 Tol=  0.10000D-05 Strict=F.
 There are   143 symmetry adapted cartesian basis functions of A   symmetry.
 There are   143 symmetry adapted basis functions of A   symmetry.
   143 basis functions,   238 primitive gaussians,   143 cartesian basis functions
    23 alpha electrons       23 beta electrons
       nuclear repulsion energy       243.7166733733 Hartrees.
 IExCor= 4336 DFT=T Ex+Corr=M062X ExCW=0 ScaHFX=  0.540000
 ScaDFX=  1.000000  1.000000  1.000000  1.000000 ScalE2=  1.000000  1.000000
 IRadAn=      0 IRanWt=     -1 IRanGd=            0 ICorTp=0 IEmpDi=131
 NAtoms=    9 NActive=    9 NUniq=    9 SFac= 1.00D+00 NAtFMM=   60 NAOKFM=F Big=F
 Integral buffers will be    131072 words long.
 Raffenetti 2 integral format.
 Two-electron integral symmetry is turned on.
 R6Disp:  Grimme-D3 Dispersion energy=       -0.0001858075 Hartrees.
 Nuclear repulsion after empirical dispersion term =      243.7164875658 Hartrees.
 ------------------------------------------------------------------------------
 Polarizable Continuum Model (PCM)
 =================================
 Model                : PCM (using non-symmetric T matrix).
 Atomic radii         : SMD-Coulomb.
 Polarization charges : Total charges.
 Charge compensation  : None.
 Solution method      : On-the-fly selection.
 Cavity type          : VdW (van der Waals Surface) (Alpha=1.000).
 Cavity algorithm     : GePol (No added spheres)
                        Default sphere list used, NSphG=    9.
                        Lebedev-Laikov grids with approx.  5.0 points / Ang**2.
                        Smoothing algorithm: Karplus/York (Gamma=1.0000).
                        Polarization charges: spherical gaussians, with
                                              point-specific exponents (IZeta= 3).
                        Self-potential: point-specific (ISelfS= 7).
                        Self-field    : sphere-specific E.n sum rule (ISelfD= 2).
 1st derivatives      : Analytical E(r).r(x)/FMM algorithm (CHGder, D1EAlg=3).
                        Cavity 1st derivative terms included.
 Solvent              : DiMethylSulfoxide, Eps=  46.826000 Eps(inf)=   2.007889
 ------------------------------------------------------------------------------
 Spheres list:
 ISph  on   Nord     Re0    Alpha      Xe            Ye            Ze
    1   O      1    2.2940  1.000      2.300534     -0.000004     -0.008142
    2   C      2    1.8500  1.000      1.109359     -0.000007      0.014716
    3   O      3    2.2940  1.000      0.318580      1.102859     -0.000198
    4   C      4    1.8500  1.000     -0.999431      0.663915     -0.000289
    5   C      5    1.8500  1.000     -0.999432     -0.663913      0.001013
    6   O      6    2.2940  1.000      0.318572     -1.102849     -0.001128
    7   H      7    1.2000  1.000     -1.802985      1.379635     -0.004756
    8   H      8    1.2000  1.000     -1.802984     -1.379639     -0.002569
    9  Li      9    1.8200  1.000     -4.852831     -0.000003     -0.003188
 ------------------------------------------------------------------------------
 Separa: There are  2 disjoint cavities,
 GePol: Number of generator spheres                  =       9
 GePol: Total number of spheres                      =       9
 GePol: Number of exposed spheres                    =       9 (100.00%)
 GePol: Number of points                             =    1312
 GePol: Average weight of points                     =       0.13
 GePol: Minimum weight of points                     =   0.60D-08
 GePol: Maximum weight of points                     =    0.17992
 GePol: Number of points with low weight             =      32
 GePol: Fraction of low-weight points (<1% of avg)   =       2.44%
 ------------------------------------------------------------------------------
 Atomic radii for non-electrostatic terms: SMD-CDS.
 ------------------------------------------------------------------------------
 PCM non-electrostatic energy =         0.0018335689 Hartrees.
 Nuclear repulsion after PCM non-electrostatic terms =      243.7183211347 Hartrees.
[...]
      9 -0.778762D-01 -0.293355D-03  0.514924D-03  0.688151D-01
     10 -0.446371D-04 -0.230357D+00  0.426406D-01  0.181652D-03  0.646687D+00
     11  0.263796D-04  0.809756D-01 -0.125638D+00 -0.160458D-03  0.167158D+00
     12  0.539446D-02  0.230085D-03 -0.132595D-03 -0.475050D-01 -0.140538D-03
     13  0.145647D-03 -0.643570D-01  0.173994D-01  0.780750D-04 -0.702808D-01
     14  0.000000D+00  0.523555D-01 -0.529333D-01 -0.126387D-03  0.198174D-01
     15  0.539433D-02  0.121730D-03 -0.105347D-03  0.173243D-01  0.355238D-04
     16  0.108997D-03  0.207196D-01  0.349225D-01  0.396263D-04 -0.643574D-01
     17 -0.199207D-03 -0.349235D-01 -0.815906D-01 -0.977819D-04 -0.173992D-01
     18 -0.778763D-01 -0.500549D-04 -0.146611D-03  0.127678D-01  0.335728D-04
     19  0.127679D-04 -0.218190D-01 -0.211688D-01 -0.143443D-04 -0.211082D+00
     20 -0.730405D-05  0.146336D-01  0.147781D-01  0.118968D-04 -0.167121D+00
     21  0.884775D-04  0.341875D-04  0.368990D-04 -0.177967D-02 -0.103210D-03
     22 -0.878236D-05  0.543181D-02 -0.196832D-02  0.135343D-05  0.791017D-02
     23 -0.337845D-05  0.635354D-03 -0.313391D-02 -0.177310D-04  0.178179D-01
     24  0.884923D-04  0.518864D-05 -0.151384D-04  0.100019D-01  0.166757D-04
     25  0.000000D+00  0.526839D-03  0.192967D-03  0.000000D+00 -0.994660D-02
     26  0.000000D+00  0.162630D-04 -0.143484D-03  0.000000D+00  0.254260D-02
     27 -0.986757D-05  0.000000D+00  0.000000D+00 -0.577554D-04  0.840149D-05
               11            12            13            14            15 
     11  0.954634D+00
     12  0.991564D-03  0.108110D+00
     13 -0.198222D-01 -0.197360D-04  0.646681D+00
     14 -0.561307D+00 -0.659122D-03 -0.167155D+00  0.954637D+00
     15 -0.633002D-03 -0.596787D-01 -0.606469D-03  0.123091D-02  0.108110D+00
     16 -0.523552D-01 -0.102862D-04 -0.230355D+00 -0.809743D-01  0.216541D-04
     17 -0.529325D-01 -0.810280D-04 -0.426391D-01 -0.125637D+00 -0.739960D-04
     18 -0.538754D-04  0.173244D-01  0.685451D-04 -0.492208D-04 -0.475048D-01
     19 -0.152785D+00 -0.826608D-04  0.791014D-02  0.158679D-02 -0.222849D-05
     20 -0.219208D+00 -0.143986D-03 -0.178179D-01 -0.144774D-02  0.720835D-05
     21 -0.158406D-03 -0.273680D-01 -0.259391D-04 -0.204095D-05  0.150751D-02
     22 -0.158713D-02 -0.684707D-05 -0.211078D+00  0.152785D+00  0.342592D-03
     23 -0.144755D-02 -0.176394D-04  0.167121D+00 -0.219211D+00 -0.382526D-03
     24  0.000000D+00  0.150744D-02  0.366603D-03 -0.377466D-03 -0.273685D-01
     25  0.160182D-02  0.817696D-05 -0.994649D-02 -0.160188D-02  0.417293D-05
     26 -0.125135D-02 -0.309458D-05 -0.254252D-02 -0.125146D-02  0.000000D+00
     27 -0.212695D-05 -0.286232D-04  0.175041D-05  0.000000D+00 -0.286246D-04
               16            17            18            19            20 
     16  0.499744D+00
     17 -0.854757D-03  0.462056D+00
     18 -0.295369D-03  0.513278D-03  0.688152D-01
     19  0.543180D-02  0.196812D-02  0.526092D-05  0.222506D+00
     20 -0.635450D-03 -0.313401D-02 -0.167128D-04  0.165831D+00  0.211421D+00
     21  0.142157D-05 -0.181475D-04  0.100019D-01  0.861513D-04  0.145882D-03
     22 -0.218190D-01  0.211693D-01  0.423603D-04 -0.146564D-03  0.339641D-03
     23 -0.146333D-01  0.147780D-01  0.322306D-04 -0.339647D-03 -0.165516D-03
     24 -0.669017D-05  0.763568D-05 -0.177969D-02 -0.212185D-05  0.338880D-05
     25  0.526851D-03 -0.192969D-03  0.000000D+00  0.126502D-02  0.396380D-03
     26 -0.162795D-04 -0.143481D-03  0.000000D+00 -0.136981D-02  0.142256D-03
     27  0.000000D+00  0.000000D+00 -0.577532D-04 -0.169046D-05  0.000000D+00
               21            22            23            24            25 
     21  0.198553D-01
     22 -0.152673D-05  0.222503D+00
     23  0.391191D-05 -0.165830D+00  0.211424D+00
     24 -0.276328D-02 -0.375694D-03  0.381116D-03  0.198559D-01
     25  0.000000D+00  0.126492D-02 -0.396350D-03 -0.132162D-05  0.164125D-01
     26  0.119591D-05  0.136972D-02  0.142220D-03  0.000000D+00  0.000000D+00
     27 -0.403171D-03  0.239321D-05  0.204629D-05 -0.403102D-03 -0.997106D-05
               26            27 
     26  0.247254D-02
     27  0.137269D-05  0.986815D-03
 FormGI is forming the generalized inverse of G from B-inverse, IUseBI=4.
 Leave Link  716 at Mon May 16 16:33:25 2022, MaxMem=  2147483648 cpu:         2.3
 (Enter /gpfs/runtime/opt/gaussian/g09-D01/g09/l103.exe)

 GradGradGradGradGradGradGradGradGradGradGradGradGradGradGradGradGradGrad
 Berny optimization.
 Red2BG is reusing G-inverse.
 Internal  Forces:  Max     0.000017903 RMS     0.000003379
 Search for a local minimum.
 Step number   1 out of a maximum of    2
 All quantities printed in internal units (Hartrees-Bohrs-Radians)
 Second derivative matrix not updated -- analytic derivatives used.
 ITU=  0
     Eigenvalues ---    0.00193   0.00195   0.00814   0.00878   0.01571
     Eigenvalues ---    0.01997   0.04211   0.06430   0.09016   0.09571
     Eigenvalues ---    0.19202   0.24754   0.27879   0.33722   0.35430
     Eigenvalues ---    0.36403   0.37490   0.42842   0.44859   0.59107
     Eigenvalues ---    0.94404
 Angle between quadratic step and forces=  76.40 degrees.
 Linear search not attempted -- first point.
 Iteration  1 RMS(Cart)=  0.00003691 RMS(Int)=  0.00000000
 Iteration  2 RMS(Cart)=  0.00000000 RMS(Int)=  0.00000000
 ITry= 1 IFail=0 DXMaxC= 1.34D-04 DCOld= 1.00D+10 DXMaxT= 3.00D-01 DXLimC= 3.00D+00 Rises=F
 Variable       Old X    -DE/DX   Delta X   Delta X   Delta X     New X
                                 (Linear)    (Quad)   (Total)
    R1        2.26429  -0.00002   0.00000  -0.00002  -0.00002   2.26427
    R2        2.55287  -0.00001   0.00000  -0.00001  -0.00001   2.55286
    R3        2.55287  -0.00001   0.00000  -0.00001  -0.00001   2.55286
    R4        2.61648   0.00000   0.00000   0.00001   0.00001   2.61649
    R5        2.51004  -0.00001   0.00000  -0.00001  -0.00001   2.51003
    R6        2.03855   0.00000   0.00000   0.00000   0.00000   2.03855
    R7        2.61648   0.00000   0.00000   0.00000   0.00000   2.61649
    R8        2.03855   0.00000   0.00000   0.00000   0.00000   2.03855
    R9        5.92450   0.00000   0.00000  -0.00001  -0.00001   5.92449
   R10        5.92451   0.00000   0.00000  -0.00002  -0.00002   5.92449
    A1        2.19458   0.00000   0.00000   0.00000   0.00000   2.19458
    A2        2.19458   0.00000   0.00000   0.00000   0.00000   2.19458
    A3        1.89402   0.00000   0.00000   0.00000   0.00000   1.89402
    A4        1.87699   0.00000   0.00000   0.00000   0.00000   1.87700
    A5        1.88839   0.00000   0.00000   0.00000   0.00000   1.88838
    A6        2.05621   0.00000   0.00000  -0.00002  -0.00002   2.05619
    A7        2.33858   0.00000   0.00000   0.00003   0.00003   2.33861
    A8        1.88839   0.00000   0.00000   0.00000   0.00000   1.88838
    A9        2.33858   0.00000   0.00000   0.00002   0.00002   2.33861
   A10        2.05621   0.00000   0.00000  -0.00002  -0.00002   2.05619
   A11        1.87699   0.00000   0.00000   0.00001   0.00001   1.87700
   A12        1.90612   0.00000   0.00000  -0.00004  -0.00004   1.90609
   A13        1.90612   0.00000   0.00000  -0.00003  -0.00003   1.90609
   A14        0.93537   0.00000   0.00000   0.00002   0.00002   0.93538
    D1       -3.14157   0.00000   0.00000  -0.00003  -0.00003  -3.14159
    D2        0.00003   0.00000   0.00000  -0.00003  -0.00003   0.00000
    D3        3.14159   0.00000   0.00000   0.00000   0.00000   3.14159
    D4        0.00000   0.00000   0.00000   0.00000   0.00000   0.00000
    D5       -0.00004   0.00000   0.00000   0.00004   0.00004   0.00000
    D6       -3.14155   0.00000   0.00000  -0.00004  -0.00004  -3.14159
    D7        0.00004   0.00000   0.00000  -0.00004  -0.00004   0.00000
    D8        3.14150   0.00000   0.00000   0.00009   0.00009   3.14159
    D9        3.14153   0.00000   0.00000   0.00006   0.00006   3.14159
   D10       -0.00020   0.00000   0.00000   0.00020   0.00020   0.00000
   D11        3.14153   0.00000   0.00000   0.00007   0.00007  -3.14159
   D12        0.00004   0.00000   0.00000  -0.00004  -0.00004   0.00000
   D13       -0.00003   0.00000   0.00000   0.00003   0.00003   0.00000
   D14       -3.14151   0.00000   0.00000  -0.00008  -0.00008  -3.14159
   D15        0.00020   0.00000   0.00000  -0.00020  -0.00020   0.00000
   D16       -3.14155   0.00000   0.00000  -0.00005  -0.00005  -3.14159
   D17        0.00003   0.00000   0.00000  -0.00003  -0.00003   0.00000
   D18       -0.00010   0.00000   0.00000   0.00010   0.00010   0.00000
         Item               Value     Threshold  Converged?
 Maximum Force            0.000018     0.000450     YES
 RMS     Force            0.000003     0.000300     YES
 Maximum Displacement     0.000134     0.001800     YES
 RMS     Displacement     0.000037     0.001200     YES
 Predicted change in Energy=-9.267864D-10
 Optimization completed.
    -- Stationary point found.
                           ----------------------------
                           !   Optimized Parameters   !
                           ! (Angstroms and Degrees)  !
 --------------------------                            --------------------------
 ! Name  Definition              Value          Derivative Info.                !
 --------------------------------------------------------------------------------
 ! R1    R(1,2)                  1.1982         -DE/DX =    0.0                 !
 ! R2    R(2,3)                  1.3509         -DE/DX =    0.0                 !
 ! R3    R(2,6)                  1.3509         -DE/DX =    0.0                 !
 ! R4    R(3,4)                  1.3846         -DE/DX =    0.0                 !
 ! R5    R(4,5)                  1.3283         -DE/DX =    0.0                 !
 ! R6    R(4,7)                  1.0788         -DE/DX =    0.0                 !
 ! R7    R(5,6)                  1.3846         -DE/DX =    0.0                 !
 ! R8    R(5,8)                  1.0788         -DE/DX =    0.0                 !
 ! R9    R(7,9)                  3.1351         -DE/DX =    0.0                 !
 ! R10   R(8,9)                  3.1351         -DE/DX =    0.0                 !
 ! A1    A(1,2,3)              125.7403         -DE/DX =    0.0                 !
 ! A2    A(1,2,6)              125.7404         -DE/DX =    0.0                 !
 ! A3    A(3,2,6)              108.5193         -DE/DX =    0.0                 !
 ! A4    A(2,3,4)              107.5437         -DE/DX =    0.0                 !
 ! A5    A(3,4,5)              108.1967         -DE/DX =    0.0                 !
 ! A6    A(3,4,7)              117.8124         -DE/DX =    0.0                 !
 ! A7    A(5,4,7)              133.9909         -DE/DX =    0.0                 !
 ! A8    A(4,5,6)              108.1967         -DE/DX =    0.0                 !
 ! A9    A(4,5,8)              133.991          -DE/DX =    0.0                 !
 ! A10   A(6,5,8)              117.8123         -DE/DX =    0.0                 !
 ! A11   A(2,6,5)              107.5437         -DE/DX =    0.0                 !
 ! A12   A(4,7,9)              109.2128         -DE/DX =    0.0                 !
 ! A13   A(5,8,9)              109.2126         -DE/DX =    0.0                 !
 ! A14   A(7,9,8)               53.5927         -DE/DX =    0.0                 !
 ! D1    D(1,2,3,4)           -179.9984         -DE/DX =    0.0                 !
 ! D2    D(6,2,3,4)              0.0014         -DE/DX =    0.0                 !
 ! D3    D(1,2,6,5)            180.0            -DE/DX =    0.0                 !
 ! D4    D(3,2,6,5)              0.0001         -DE/DX =    0.0                 !
 ! D5    D(2,3,4,5)             -0.0025         -DE/DX =    0.0                 !
 ! D6    D(2,3,4,7)           -179.9976         -DE/DX =    0.0                 !
 ! D7    D(3,4,5,6)              0.0025         -DE/DX =    0.0                 !
 ! D8    D(3,4,5,8)            179.9946         -DE/DX =    0.0                 !
 ! D9    D(7,4,5,6)            179.9966         -DE/DX =    0.0                 !
 ! D10   D(7,4,5,8)             -0.0114         -DE/DX =    0.0                 !
 ! D11   D(3,4,7,9)           -180.0039         -DE/DX =    0.0                 !
 ! D12   D(5,4,7,9)              0.0025         -DE/DX =    0.0                 !
 ! D13   D(4,5,6,2)             -0.0017         -DE/DX =    0.0                 !
 ! D14   D(8,5,6,2)           -179.9952         -DE/DX =    0.0                 !
 ! D15   D(4,5,8,9)              0.0112         -DE/DX =    0.0                 !
 ! D16   D(6,5,8,9)           -179.9973         -DE/DX =    0.0                 !
 ! D17   D(4,7,9,8)              0.0015         -DE/DX =    0.0                 !
 ! D18   D(5,8,9,7)             -0.0055         -DE/DX =    0.0                 !
 --------------------------------------------------------------------------------
 GradGradGradGradGradGradGradGradGradGradGradGradGradGradGradGradGradGrad

 Leave Link  103 at Mon May 16 16:33:28 2022, MaxMem=  2147483648 cpu:        13.1
 (Enter /gpfs/runtime/opt/gaussian/g09-D01/g09/l9999.exe)
 1\1\GINC-NODE1714\Freq\RM062X\6-31+G(d,p)\C3H2Li1O3(1+)\ROOT\16-May-20
 22\0\\#P Geom=AllCheck Guess=TCheck SCRF=Check GenChk RM062X/6-31+G(d,
 p) Freq\\872-36-6\\1,1\O,-1.876267083,0.0000114649,0.0015821976\C,-0.6
 780560061,0.0000057048,0.0007730814\O,0.1110412016,1.0965084837,0.0016
 678926\C,1.4263781709,0.6641266722,0.0001805827\C,1.4263720457,-0.6641
 301512,-0.0015151457\O,0.1110301344,-1.096502737,-0.0011902091\H,2.202
 4920332,1.4133666706,0.0006662646\H,2.2024779657,-1.4133766947,-0.0030
 970697\Li,5.0009315376,-0.0000094039,-0.0029675943\\Version=EM64L-G09R
 evD.01\State=1-A\HF=-348.4869925\RMSD=3.664e-09\RMSF=5.565e-06\ZeroPoi
 nt=0.0524564\Thermal=0.0587296\Dipole=11.1561093,-0.0000323,-0.007387\
 DipoleDeriv=-2.110806,-0.0000005,0.0010978,0.0000086,-0.5444841,-0.000
 0554,0.0010849,-0.0000473,-0.5053555,3.3116059,0.000002,-0.0018582,-0.
 0000135,1.2592963,0.0009031,-0.0018311,0.0008633,0.5874019,-1.3676663,
 0.255737,0.001118,-0.6421705,-0.8026905,-0.0003791,-0.0000324,-0.00100
 36,-0.1828376,0.6119411,-0.362468,-0.0009572,-0.3024508,0.2573086,0.00
 06932,-0.0008774,0.00078,-0.1195814,0.6119524,0.3624669,-0.0000522,0.3
 02453,0.2572931,0.0002877,-0.0001289,0.0003068,-0.1195841,-1.3676673,-
 0.2557361,0.0005051,0.6421755,-0.802692,-0.0012526,0.0016322,-0.000650
 3,-0.1828377,0.1376063,0.0601186,0.0001669,0.0144288,0.1915862,-0.0001
 052,0.0001011,-0.0001575,0.2629411,0.1376061,-0.0601206,0.0000049,-0.0
 144308,0.1915885,-0.0000866,0.0000821,-0.0000866,0.2629412,1.0354279,0
 .0000006,-0.0000251,-0.0000003,0.992794,-0.0000051,-0.0000306,-0.00000
 47,0.9969122\Polar=64.5564558,0.0002517,53.0296675,-0.0227117,0.027733
 2,31.3275166\PG=C01 [X(C3H2Li1O3)]\NImag=0\\0.91334125,-0.00000374,0.0
 9860141,-0.00059450,0.00008576,0.03270264,-0.77155573,0.00000329,0.000
 46988,1.19493347,0.00000284,-0.09691626,-0.00002787,-0.00000334,0.5124
 5799,0.00047016,-0.00002783,-0.07553389,-0.00066052,0.00038054,0.22033
 057,-0.06899917,-0.06299188,-0.00002332,-0.14089248,-0.05155442,-0.000
 02400,0.49974640,-0.04987125,0.00518281,0.00001705,-0.02300042,-0.2185
 7693,-0.00016892,0.00085334,0.46205560,-0.00000637,0.00002618,0.018309
 54,0.00001346,-0.00015051,-0.07787625,-0.00029336,0.00051492,0.0688151
 0,-0.00071729,0.00809479,0.00001256,-0.06785670,-0.07355101,-0.0000446
 4,-0.23035695,0.04264064,0.00018165,0.64668713,-0.00384239,-0.00766203
 ,-0.00001053,-0.01934328,0.01481343,0.00002638,0.08097564,-0.12563836,
 -0.00016046,0.16715796,0.95463378,-0.00000266,-0.00001911,0.00224428,0
 .00002447,0.00006501,0.00539446,0.00023008,-0.00013259,-0.04750499,-0.
 00014054,0.00099156,0.10810977,-0.00071738,-0.00809494,-0.00000848,-0.
 06785569,0.07355165,0.00014565,-0.06435698,0.01739935,0.00007808,-0.07
 028075,-0.01982224,-0.00001974,0.64668092,0.00384210,-0.00766182,-0.00
 001545,0.01934436,0.01481263,-0.00000038,0.05235553,-0.05293326,-0.000
 12639,0.01981736,-0.56130703,-0.00065912,-0.16715517,0.95463722,0.0000
 0678,-0.00000791,0.00224428,0.00007625,-0.00003520,0.00539433,0.000121
 73,-0.00010535,0.01732430,0.00003552,-0.00063300,-0.05967871,-0.000606
 47,0.00123091,0.10811024,-0.06899799,0.06299245,0.00014115,-0.14089247
 ,0.05155433,0.00010900,0.02071956,0.03492252,0.00003963,-0.06435744,-0
 .05235521,-0.00001029,-0.23035534,-0.08097428,0.00002165,0.49974403,0.
 04987215,0.00518184,-0.00005081,0.02299994,-0.21857862,-0.00019921,-0.
 03492346,-0.08159055,-0.00009778,-0.01739919,-0.05293248,-0.00008103,-
 0.04263909,-0.12563705,-0.00007400,-0.00085476,0.46205638,0.00012362,-
 0.00005951,0.01830932,0.00007267,-0.00021948,-0.07787632,-0.00005005,-
 0.00014661,0.01276778,0.00003357,-0.00005388,0.01732436,0.00006855,-0.
 00004922,-0.04750481,-0.00029537,0.00051328,0.06881520,-0.00139735,-0.
 00204022,-0.00000113,-0.00266824,0.00831816,0.00001277,-0.02181903,-0.
 02116883,-0.00001434,-0.21108156,-0.15278518,-0.00008266,0.00791014,0.
 00158679,-0.00000223,0.00543180,0.00196812,0.00000526,0.22250579,0.001
 55488,0.00165421,-0.00000007,0.00281928,-0.00403975,-0.00000730,0.0146
 3365,0.01477808,0.00001190,-0.16712109,-0.21920840,-0.00014399,-0.0178
 1790,-0.00144774,0.00000721,-0.00063545,-0.00313401,-0.00001671,0.1658
 3062,0.21142088,0.00000365,0.00000260,0.00086088,0.00000569,-0.0000119
 0,0.00008848,0.00003419,0.00003690,-0.00177967,-0.00010321,-0.00015841
 ,-0.02736799,-0.00002594,-0.00000204,0.00150751,0.00000142,-0.00001815
 ,0.01000192,0.00008615,0.00014588,0.01985533,-0.00139759,0.00204026,0.
 00000415,-0.00266788,-0.00831821,-0.00000878,0.00543181,-0.00196832,0.
 00000135,0.00791017,-0.00158713,-0.00000685,-0.21107842,0.15278519,0.0
 0034259,-0.02181900,0.02116927,0.00004236,-0.00014656,0.00033964,-0.00
 000153,0.22250256,-0.00155459,0.00165421,0.00000197,-0.00281984,-0.004
 03963,-0.00000338,0.00063535,-0.00313391,-0.00001773,0.01781794,-0.001
 44755,-0.00001764,0.16712087,-0.21921149,-0.00038253,-0.01463333,0.014
 77798,0.00003223,-0.00033965,-0.00016552,0.00000391,-0.16583042,0.2114
 2369,-0.00000030,-0.00000013,0.00086088,-0.00000233,-0.00000070,0.0000
 8849,0.00000519,-0.00001514,0.01000193,0.00001668,0.00000046,0.0015074
 4,0.00036660,-0.00037747,-0.02736853,-0.00000669,0.00000764,-0.0017796
 9,-0.00000212,0.00000339,-0.00276328,-0.00037569,0.00038112,0.01985586
 ,0.00044125,0.,-0.00000030,-0.00054428,0.00000001,0.00000037,0.0005268
 4,0.00019297,-0.00000010,-0.00994660,0.00160182,0.00000818,-0.00994649
 ,-0.00160188,0.00000417,0.00052685,-0.00019297,-0.00000060,0.00126502,
 0.00039638,-0.00000043,0.00126492,-0.00039635,-0.00000132,0.01641249,0
 .,-0.00003437,-0.00000005,0.00000001,0.00006714,0.00000010,0.00001626,
 -0.00014348,-0.00000013,0.00254260,-0.00125135,-0.00000309,-0.00254252
 ,-0.00125146,-0.00000014,-0.00001628,-0.00014348,-0.00000010,-0.001369
 81,0.00014226,0.00000120,0.00136972,0.00014222,0.00000084,0.00000003,0
 .00247254,-0.00000036,-0.00000004,0.00000208,0.00000044,0.00000010,-0.
 00000987,-0.00000046,-0.00000026,-0.00005776,0.00000840,-0.00000213,-0
 .00002862,0.00000175,-0.00000084,-0.00002862,-0.00000050,0.00000005,-0
 .00005775,-0.00000169,-0.00000030,-0.00040317,0.00000239,0.00000205,-0
 .00040310,-0.00000997,0.00000137,0.00098682\\-0.00001790,0.00000011,-0
 .00000044,0.00001129,-0.00000038,0.00000009,0.00000443,0.00000551,0.00
 000145,-0.00000285,0.00000816,-0.00000733,-0.00000255,-0.00000774,0.00
 000817,0.00000374,-0.00000568,-0.00000112,0.00000135,-0.00000186,0.000
 00214,0.00000128,0.00000187,-0.00000318,0.00000122,0.00000001,0.000000
 20\\\@


 TRUTH, IN SCIENCE, CAN BE DEFINED AS THE WORKING HYPOTHESIS 
 BEST FITTED TO OPEN THE WAY TO THE NEXT BETTER ONE.

                              -- KONRAD LORENZ
 Job cpu time:       0 days  0 hours  5 minutes 26.6 seconds.
 File lengths (MBytes):  RWF=    620 Int=      0 D2E=      0 Chk=     12 Scr=      8
 Normal termination of Gaussian 09 at Mon May 16 16:33:28 2022.
